/*--------------------------------*- C++ -*----------------------------------*\
| =========                 |                                                 |
| \\      /  F ield         | OpenFOAM: The Open Source CFD Toolbox           |
|  \\    /   O peration     | Version:  2312                                  |
|   \\  /    A nd           | Website:  www.openfoam.com                      |
|    \\/     M anipulation  |                                                 |
\*---------------------------------------------------------------------------*/
FoamFile
{
    version     2.0;
    format      ascii;
    arch        "LSB;label=32;scalar=64";
    class       volScalarField;
    location    "3.35";
    object      alpha.water;
}
// * * * * * * * * * * * * * * * * * * * * * * * * * * * * * * * * * * * * * //

dimensions      [0 0 0 0 0 0 0];

internalField   nonuniform List<scalar> 
2268
(
3.54334e-07
1.47755e-07
7.51634e-09
3.96649e-10
3.17459e-10
1.98581e-10
1.12219e-10
6.65686e-11
4.77052e-11
3.98021e-11
3.82145e-11
4.02659e-11
4.62378e-11
5.64182e-11
7.12682e-11
9.26447e-11
1.36158e-10
2.07204e-10
3.11567e-10
5.17544e-10
8.80469e-10
1.23025e-09
1.39249e-09
4.04486e-07
2.60102e-07
2.86711e-08
6.05282e-09
3.85331e-10
2.70072e-10
1.5615e-10
1.01014e-10
7.75294e-11
6.24418e-11
5.56033e-11
5.6959e-11
7.44814e-11
8.93728e-11
1.11526e-10
1.51844e-10
2.14917e-10
3.59924e-10
5.93021e-10
9.54479e-10
1.69316e-09
2.19221e-09
1.69844e-09
2.72154e-07
6.60236e-08
1.29027e-08
2.26666e-10
1.63007e-10
2.29705e-10
2.49999e-10
2.29275e-10
1.86245e-10
1.42659e-10
1.05535e-10
1.1475e-10
1.54774e-10
1.35205e-10
1.47389e-10
3.93141e-10
2.85973e-10
2.8572e-10
4.25721e-10
8.13263e-10
1.91014e-09
2.92986e-09
1.42982e-09
-1.26833e-22
5.36846e-09
3.64238e-09
1.11816e-10
1.10882e-10
1.3561e-10
1.58686e-10
2.2259e-10
3.60189e-10
3.83926e-10
3.35662e-10
2.0079e-10
1.19118e-10
8.71291e-11
6.56435e-11
9.27032e-11
5.29476e-11
2.08024e-11
6.58644e-12
5.77103e-12
3.57462e-11
1.35572e-10
1.32479e-10
-2.21459e-21
-8.75684e-21
4.19226e-18
1.31138e-08
2.34223e-11
2.32783e-11
2.31353e-11
2.15859e-11
2.56936e-11
1.59079e-11
4.66657e-12
-2.5321e-13
-3.09937e-29
6.73824e-29
2.83356e-13
1.30256e-22
3.74357e-23
2.98957e-23
1.6668e-23
0.00165424
9.8787e-13
2.17061e-12
0.00773891
0.0548815
0.0389399
0.0194499
0.00682664
0.000856028
5.55075e-06
-8.2546e-22
-1.35113e-20
-6.53214e-21
5.51545e-25
3.70557e-25
0.00483907
0.0327552
0.0869026
0.162336
0.235633
0.35049
0.44718
0.549414
0.600916
0.618208
0.629482
0.605066
0.749846
0.707116
0.63381
0.550608
0.45489
0.398597
0.380773
0.370091
0.393198
0.44017
0.501281
0.58544
0.68941
0.783162
0.881437
0.924106
0.926659
0.9131
0.866909
0.859229
0.910731
0.921234
0.902754
0.995259
0.993491
0.995032
0.998113
0.999487
0.978716
0.976898
0.993429
0.989646
0.99233
0.996017
0.977816
0.945114
0.971719
0.981871
0.978486
0.883796
0.821627
0.821467
0.905058
0.977977
0.968039
0.92997
0.0152327
0.0168013
0.0140248
0.00682872
0.0106979
0.0188169
0.0189251
0.0172609
0.0153195
0.0140968
0.0131569
0.0129824
0.0123177
0.00952501
0.00730405
0.00369806
0.00521524
0.0069565
0.00735268
0.00901265
0.00881496
0.00786906
0.00682666
0.00682621
0.00683261
0.00683466
0.00683324
0.00725769
0.00356705
0.00351507
0.00351824
0.0035137
0.00351858
0.00351495
0.00369628
0.00369034
0.0036925
0.00369473
0.214663
0.0199239
0.00682653
0.00682573
0.00682666
0.00682588
0.0605861
0.0846007
0.0757047
0.0874592
0.13914
0.153727
0.0942636
0.037146
0.0232055
0.0204369
0.041828
0.0778958
0.113098
0.525416
0.169333
0.0375909
0.0208711
0.0949176
0.385975
0.645381
0.549822
0.406916
0.411673
0.685871
0.816153
0.774777
0.659813
0.572047
0.531098
0.42601
0.433444
0.607749
0.525634
0.509058
0.477319
0.686819
0.803355
0.805037
0.791786
0.583062
0.422134
0.476286
0.87336
0.893482
0.893612
0.893521
0.885151
0.891068
0.853143
0.832804
0.891242
0.525623
0.790817
0.85185
0.622979
0.508098
0.508147
0.581912
0.640864
0.421097
0.666015
0.893443
0.893588
0.893551
0.891194
0.891359
0.891361
0.89136
0.891359
0.891358
0.588117
0.924444
0.915368
0.888599
0.905032
0.94856
0.963432
0.948773
0.570305
0.63092
0.821575
0.892515
0.893588
0.857802
0.873301
0.891363
0.891361
0.89136
0.877741
0.694548
0.965546
0.965577
0.965576
0.965547
0.965508
0.96549
0.965391
0.876111
0.55438
0.574461
0.793591
0.883196
0.846709
0.847904
0.877119
0.809908
0.447774
0.149441
0.999184
0.999191
0.999198
0.999561
0.999561
0.999561
0.999561
0.999561
0.999561
0.999561
0.998226
0.957164
0.944348
0.95215
0.982009
0.949961
0.824411
0.825079
0.910893
0.991285
0.991285
0.990683
0.95098
0.999173
0.99918
0.99912
0.998244
0.998091
0.999561
0.999561
0.999561
0.999561
0.999561
0.999542
0.992787
0.954471
0.951065
0.973445
0.979554
0.967779
0.984762
0.991285
0.991285
0.991285
0.991285
0.969326
0.938208
0.9806
0.997397
0.997135
0.997866
0.997288
0.996408
0.99696
0.997733
0.990041
0.991144
0.992618
0.986623
0.977686
0.98217
0.984011
0.984034
0.981944
0.925915
0.855765
0.820993
0.792216
0.792304
0.396108
0.511895
0.717701
0.815354
0.878159
0.896653
0.886462
0.892847
0.94177
0.944374
0.92955
0.968448
0.988277
0.988289
0.98722
0.94071
0.920703
0.568438
0.186188
0.1302
0.105325
0.0633166
0.0588341
0.0176125
0.0624874
0.162083
0.250353
0.287183
0.297842
0.320193
0.424205
0.529776
0.598655
0.677888
0.795106
0.910617
0.939061
0.925948
0.903715
0.439835
0.0352608
3.39137e-05
0.000297028
-2.4943e-07
7.2801e-09
3.42886e-07
0.00124154
0.00181688
0.017819
0.0122574
-1.82211e-09
-1.111e-13
2.47267e-19
0.00366585
0.00970057
0.0199211
0.037082
0.103772
0.249589
0.393221
0.425156
0.239304
0.0228811
9.67743e-07
3.43821e-05
0.000464774
0.000702765
0.000773779
0.00130112
0.0012738
0.0141153
0.0184266
1.22131e-06
1.03096e-06
-1.1111e-09
-3.51032e-08
-4.12336e-07
-1.24669e-21
1.1843e-05
2.72087e-05
-1.1976e-07
3.11968e-21
3.03984e-05
0.000560532
4.41796e-19
2.27771e-19
1.07771e-06
0.000316566
0.000674359
0.000698717
0.00314299
0.0129551
0.0031995
0.0297131
0.0297286
0.0017385
0.00012957
0.000588827
0.00115055
0.000547101
5.09288e-24
1.33563e-05
0.000116368
0.000204863
0.000220775
0.000105513
1.46658e-05
2.61588e-19
6.00786e-06
0.00031217
0.00090533
0.00161515
0.00204537
0.0109908
0.0209954
0.00403621
0.0305861
0.0304332
0.000479045
0.000323504
0.00148116
0.00147632
0.000756789
2.12906e-07
5.426e-05
0.000220603
0.00482529
0.00744107
0.00744132
0.00744111
0.00740018
0.0040746
0.000433802
0.000774149
0.00170902
0.0105558
0.0208499
0.0207692
0.00288906
0.019096
0.0127159
0.000397332
0.000324044
0.000228201
0.000441557
0.000874535
0.000921266
0.00062263
0.000558388
0.00141194
0.00352568
0.00396145
0.00286845
0.00108282
0.000294947
0.00352792
0.0209829
0.0209829
0.0209829
0.0138692
0.0011973
0.00292871
0.000931458
3.6578e-06
1.08615e-05
2.40872e-05
1.42828e-07
1.42177e-07
1.43242e-07
6.49932e-06
7.70364e-05
0.000224284
0.000165326
2.33975e-06
1.76129e-06
3.47995e-07
2.85102e-07
2.59261e-06
0.00141264
0.0166061
0.020521
0.00333466
3.28441e-07
3.04957e-07
0.00292884
0.000736989
1.05033e-07
1.07397e-07
1.0229e-07
2.47267e-07
2.62236e-07
1.65e-07
1.71432e-07
1.70813e-07
1.30993e-06
6.35435e-06
1.50944e-05
1.56127e-05
1.5343e-05
5.85547e-06
9.36079e-07
4.53764e-05
0.000616053
6.0644e-11
2.68321e-09
4.14405e-05
0.000196716
0.0013942
0.000192873
1.07027e-07
1.04225e-07
2.56539e-07
3.32794e-07
3.69036e-07
4.82861e-07
3.3795e-07
1.70949e-07
1.71389e-07
2.33854e-06
3.51683e-06
2.62377e-06
9.91869e-07
1.01521e-06
9.19308e-07
2.03192e-06
8.59964e-12
8.59927e-12
8.59929e-12
3.6185e-07
3.5078e-06
9.45246e-07
6.6083e-07
1.65884e-07
8.3944e-08
1.16776e-07
1.94227e-07
7.07165e-07
1.20221e-06
1.2137e-06
5.39446e-07
2.31727e-07
2.27441e-07
6.58134e-08
2.516e-15
1.02503e-16
1.03337e-09
3.33704e-08
8.59985e-12
8.60016e-12
4.3637e-08
6.71249e-12
1.57906e-06
8.50923e-06
2.60585e-07
1.71701e-07
6.58505e-08
1.39548e-08
1.22167e-08
7.98245e-07
1.16518e-06
9.40812e-07
7.0819e-07
8.65328e-07
5.49899e-07
1.19731e-07
5.41774e-08
1.44038e-05
3.35641e-05
3.73533e-05
3.7722e-05
3.20756e-05
1.06847e-05
3.844e-06
2.58326e-06
3.27959e-06
2.39251e-06
5.04373e-08
3.10973e-08
1.27169e-08
4.15867e-09
1.37123e-07
5.71285e-07
3.03273e-07
2.75068e-07
1.54265e-05
2.223e-05
1.95833e-05
1.68514e-05
3.2493e-05
3.98815e-05
3.98781e-05
3.27825e-05
1.20918e-05
7.66227e-06
1.11139e-06
5.72031e-08
4.64956e-08
3.33744e-08
2.61919e-08
1.10011e-08
7.24091e-09
3.65169e-09
4.47647e-09
7.95047e-08
1.24614e-08
1.0635e-08
4.38341e-06
2.1555e-05
2.2688e-05
9.80213e-06
6.47168e-06
1.52727e-05
1.77046e-05
9.86887e-06
1.00792e-06
2.18088e-10
2.18963e-10
2.27315e-10
2.68549e-10
2.33311e-10
2.27524e-10
3.8169e-08
1.03317e-08
5.84911e-09
3.20126e-09
3.58257e-09
1.85862e-09
1.41717e-09
1.84048e-07
3.08549e-06
3.17203e-06
1.5627e-06
3.62575e-08
9.69345e-10
9.64208e-10
9.69322e-10
9.64232e-10
9.69328e-10
1.87702e-09
2.0135e-09
1.55287e-09
9.38895e-10
4.06478e-10
2.5821e-10
2.53843e-10
1.13974e-08
5.75287e-09
3.80304e-09
3.08654e-09
2.83044e-09
2.49903e-09
1.93797e-07
3.25263e-08
1.47898e-09
1.47404e-09
2.45126e-09
3.6438e-09
2.75622e-09
2.28802e-09
2.98796e-09
3.86278e-09
3.85875e-09
3.36101e-09
2.12146e-09
1.34979e-09
1.01732e-09
7.94713e-10
5.86039e-10
1.20829e-08
5.18125e-09
3.43666e-09
2.56092e-09
3.21395e-09
5.48682e-09
8.72775e-09
3.08289e-09
1.93246e-09
1.46908e-09
1.75197e-09
2.1458e-09
1.84632e-09
1.58341e-09
1.53363e-09
1.62463e-09
1.77619e-09
1.77632e-09
1.5435e-09
1.18798e-09
8.40081e-10
7.37061e-10
6.82453e-10
1.36398e-08
4.10235e-09
2.60662e-09
1.53155e-09
1.72768e-09
2.66354e-09
1.15352e-09
1.61428e-09
1.17148e-09
9.21993e-10
8.9215e-10
8.94512e-10
7.88152e-10
6.99508e-10
6.86215e-10
7.71234e-10
8.77828e-10
9.1021e-10
8.82028e-10
7.22237e-10
4.8503e-10
3.96539e-10
5.3384e-10
1.51188e-08
3.06761e-09
1.77614e-09
8.19527e-10
6.44532e-10
8.15838e-10
6.0084e-10
5.46104e-10
4.40829e-10
3.78737e-10
3.65875e-10
3.48827e-10
3.22894e-10
3.10211e-10
3.26591e-10
3.75407e-10
4.16121e-10
4.18947e-10
4.086e-10
3.54708e-10
2.4061e-10
2.29655e-10
2.58717e-10
2.50183e-08
1.9123e-09
1.20827e-09
5.32171e-10
2.8146e-10
2.54223e-10
2.0012e-10
1.71073e-10
1.55002e-10
1.48502e-10
1.41928e-10
1.34251e-10
1.29779e-10
1.2971e-10
1.38068e-10
1.53913e-10
1.68761e-10
1.73734e-10
1.73148e-10
1.55521e-10
1.23044e-10
1.08773e-10
1.41284e-10
4.7723e-08
1.44376e-09
8.79183e-10
4.24099e-10
2.01055e-10
1.35371e-10
1.04572e-10
8.52687e-11
7.24549e-11
6.47777e-11
5.72015e-11
5.19686e-11
4.94731e-11
4.88063e-11
5.09329e-11
5.52961e-11
5.8586e-11
6.06865e-11
6.14768e-11
5.8207e-11
5.28634e-11
5.74492e-11
6.59139e-11
5.73003e-08
7.42309e-10
5.98516e-10
3.34588e-10
1.94453e-10
1.37832e-10
1.08689e-10
8.51989e-11
6.4068e-11
4.62178e-11
3.35613e-11
2.4913e-11
1.97208e-11
1.70816e-11
1.67928e-11
1.74262e-11
1.83444e-11
1.92289e-11
1.97616e-11
2.04532e-11
2.23498e-11
2.36549e-11
3.4088e-11
5.62902e-08
9.70192e-10
2.80092e-10
2.70742e-10
2.23592e-10
1.90459e-10
1.61073e-10
1.2742e-10
8.96321e-11
6.1168e-11
4.11057e-11
2.59046e-11
1.5485e-11
9.3952e-12
6.54314e-12
5.45115e-12
5.21727e-12
5.40615e-12
5.78599e-12
6.70114e-12
7.37287e-12
1.09703e-11
1.38079e-11
7.39153e-08
1.50314e-09
2.03625e-10
2.83323e-10
2.74156e-10
2.6467e-10
2.39402e-10
1.94418e-10
1.36161e-10
9.74924e-11
6.90735e-11
4.35837e-11
2.42544e-11
1.2004e-11
5.54302e-12
2.7064e-12
1.68677e-12
1.42787e-12
1.55634e-12
1.99805e-12
2.76401e-12
3.52195e-12
6.17002e-12
9.54513e-08
5.65133e-09
2.03176e-10
3.39262e-10
3.71469e-10
3.67385e-10
3.47537e-10
2.90837e-10
1.90831e-10
1.50221e-10
1.12093e-10
7.3062e-11
4.15841e-11
2.04998e-11
8.72717e-12
3.30658e-12
1.205e-12
5.50297e-13
4.24266e-13
5.63475e-13
7.52956e-13
1.44383e-12
2.1468e-12
1.26683e-07
1.2906e-08
2.03848e-10
3.70246e-10
4.45591e-10
4.50331e-10
4.49747e-10
4.16202e-10
2.44258e-10
2.06674e-10
1.61958e-10
1.10433e-10
6.5831e-11
3.3713e-11
1.4657e-11
5.46617e-12
1.77155e-12
5.24056e-13
1.84207e-13
1.53107e-13
2.47644e-13
3.97633e-13
8.17078e-13
1.32469e-07
2.07122e-08
2.00868e-10
3.04553e-10
2.82364e-10
2.73343e-10
2.78737e-10
4.28282e-10
2.85892e-10
2.55336e-10
2.11965e-10
1.50927e-10
9.36565e-11
4.98519e-11
2.26754e-11
8.86166e-12
2.93901e-12
8.19744e-13
1.89057e-13
5.97797e-14
5.901e-14
1.40724e-13
2.4707e-13
1.61488e-07
2.17645e-08
2.0086e-10
2.68927e-10
2.64552e-10
2.64431e-10
5.42556e-09
5.02577e-10
3.09934e-10
3.07246e-10
2.58076e-10
1.89394e-10
1.21574e-10
6.67336e-11
3.21062e-11
1.32213e-11
4.56905e-12
1.31364e-12
3.26589e-13
5.721e-14
2.0802e-14
3.32582e-14
7.98428e-14
1.64776e-07
3.08333e-08
2.00866e-10
1.56186e-09
3.45597e-08
9.09247e-08
2.7063e-08
4.79054e-09
4.3701e-10
3.53987e-10
2.87595e-10
2.1654e-10
1.43509e-10
8.10982e-11
4.08813e-11
1.7842e-11
6.56064e-12
1.96498e-12
4.90935e-13
8.32818e-14
1.33088e-14
9.5456e-15
2.08545e-14
1.71272e-07
8.30279e-08
2.05983e-09
2.44886e-09
1.28046e-07
1.92218e-07
4.43201e-07
7.50537e-08
5.1997e-09
5.75691e-10
3.157e-10
2.25976e-10
1.51708e-10
8.64273e-11
4.44996e-11
2.06915e-11
8.387e-12
2.70261e-12
7.05108e-13
1.44085e-13
1.74706e-14
2.71268e-15
5.82865e-15
1.71274e-07
1.5713e-07
1.27575e-08
9.65682e-10
9.38583e-08
4.67685e-07
1.41924e-06
8.81813e-07
4.33592e-08
3.13407e-09
4.35319e-10
2.22703e-10
1.46524e-10
8.38213e-11
4.33856e-11
2.06751e-11
8.95081e-12
3.20055e-12
9.01791e-13
1.98229e-13
2.95629e-14
1.6839e-15
1.27923e-15
1.71273e-07
1.71274e-07
5.70912e-08
9.65084e-10
6.59764e-09
4.59632e-07
1.41896e-06
1.38952e-06
1.07382e-07
8.01949e-09
7.77814e-10
2.1662e-10
1.29905e-10
7.22469e-11
3.68948e-11
1.79899e-11
8.13915e-12
3.19119e-12
9.81624e-13
2.28189e-13
4.01958e-14
2.10302e-15
3.45553e-16
1.14406e-07
1.71273e-07
7.18789e-08
2.78519e-09
7.28605e-10
2.37443e-07
1.39595e-06
6.55174e-07
4.71692e-08
7.04572e-09
8.51727e-10
1.8958e-10
1.03479e-10
5.64224e-11
2.75559e-11
1.31003e-11
6.10044e-12
2.60685e-12
9.00821e-13
2.28033e-13
4.21101e-14
3.20405e-15
1.4338e-16
5.10861e-08
1.57442e-07
4.70367e-08
5.87463e-09
7.36527e-10
8.8618e-08
8.29241e-07
2.56098e-07
2.75627e-08
4.05445e-09
5.66044e-10
1.33292e-10
7.26832e-11
3.8288e-11
1.75247e-11
7.81128e-12
3.65657e-12
1.64634e-12
6.37404e-13
1.8177e-13
3.66358e-14
3.58517e-15
1.21379e-16
1.57102e-08
3.61344e-08
2.81803e-08
4.46864e-09
7.2887e-10
3.41867e-08
7.98078e-09
3.93737e-09
6.90112e-09
2.10494e-09
3.22553e-10
7.891e-11
4.40375e-11
2.23555e-11
9.40236e-12
3.81194e-12
1.65482e-12
7.60237e-13
3.22755e-13
1.0864e-13
2.39217e-14
3.27613e-15
1.34376e-16
6.74244e-09
1.95447e-08
9.23436e-09
1.60589e-09
1.29134e-09
6.66936e-10
5.12824e-10
1.48354e-10
1.15882e-10
1.16986e-10
5.32878e-11
3.3772e-11
2.20056e-11
1.08101e-11
4.16702e-12
1.47066e-12
5.54474e-13
2.31825e-13
1.08256e-13
4.5834e-14
1.28695e-14
1.76552e-15
1.2292e-16
5.22785e-09
6.00272e-09
3.78067e-09
3.56333e-09
4.23889e-09
3.4178e-09
1.68614e-09
5.63783e-10
1.90346e-10
6.89252e-11
2.16138e-11
1.36233e-11
8.96645e-12
4.31098e-12
1.56166e-12
4.57907e-13
1.33845e-13
4.58134e-14
2.12386e-14
1.31936e-14
4.34508e-15
8.30785e-16
9.19936e-17
8.71231e-08
2.84937e-08
2.98204e-08
8.73767e-09
5.50842e-09
2.95858e-09
1.08901e-09
2.41923e-10
5.57978e-11
1.41123e-11
4.83108e-12
3.66702e-12
2.54361e-12
1.23762e-12
4.15801e-13
1.02947e-13
2.14669e-14
4.97047e-15
2.39817e-15
2.34919e-15
1.10557e-15
3.36521e-16
5.6878e-17
3.60709e-07
2.31165e-07
3.86515e-08
7.97007e-09
3.10144e-09
1.09005e-09
2.26972e-10
2.37019e-11
1.55126e-12
1.75252e-13
4.9243e-13
5.18086e-13
3.89066e-13
1.90498e-13
6.07738e-14
1.25783e-14
1.84435e-15
2.75734e-16
1.52456e-16
2.65664e-16
2.56666e-16
1.09278e-16
2.73998e-17
0.725266
0.50024
0.50024
0.50024
0.950347
0.800345
0.5417
0.50024
0.883919
0.899839
0.911394
0.912377
0.148369
0.191332
0.214451
0.218249
4.35802e-07
1.97187e-05
-4.28202e-08
-4.06105e-08
0.00113796
0.0001952
-5.41988e-22
5.11333e-24
0.0108058
0.00198571
0.000750656
0.00157373
0.0209962
0.0201368
0.0151711
0.0156155
0.0182187
0.0188877
0.0191523
0.0186836
4.23459e-07
1.90813e-06
0.00132304
0.00133966
4.64054e-06
1.45206e-07
2.50806e-08
9.70378e-09
1.8667e-05
6.52638e-08
5.81299e-08
2.77107e-08
7.48342e-06
4.44869e-06
1.70788e-06
3.02392e-08
9.16842e-06
9.6631e-06
7.85503e-06
2.30566e-07
1.39852e-06
1.45967e-06
1.36669e-06
3.63597e-07
2.68207e-08
1.71319e-06
2.61846e-06
1.46665e-06
1.09856e-07
1.08864e-07
1.51663e-07
2.11195e-07
1.62069e-07
2.78932e-07
3.22359e-07
2.245e-07
5.83156e-10
7.24757e-10
4.06081e-09
7.74365e-09
6.86351e-10
9.61054e-10
4.89365e-09
1.26797e-08
7.93261e-10
1.49696e-09
3.08387e-09
7.34569e-09
4.08286e-10
5.77059e-10
7.91428e-10
1.58261e-09
1.778e-10
2.15704e-10
3.85425e-10
4.57322e-10
9.15285e-11
1.15664e-10
1.30588e-10
1.94126e-10
4.38901e-11
5.0612e-11
7.41884e-11
8.22423e-11
2.09064e-11
2.72959e-11
3.04092e-11
4.23081e-11
8.71477e-12
1.02746e-11
1.57679e-11
1.7156e-11
3.51778e-12
4.79545e-12
5.50106e-12
7.86318e-12
1.31416e-12
1.57315e-12
2.42845e-12
2.70194e-12
4.69671e-13
6.41915e-13
7.68198e-13
1.09866e-12
1.44352e-13
1.88133e-13
2.96471e-13
3.36906e-13
4.51709e-14
6.85209e-14
8.38489e-14
1.22515e-13
1.22876e-14
1.7066e-14
2.76093e-14
3.26358e-14
3.47684e-15
5.13697e-15
6.97836e-15
1.04839e-14
6.83071e-16
1.04371e-15
1.88249e-15
2.43088e-15
1.64592e-16
2.67983e-16
4.13369e-16
6.93839e-16
3.21506e-17
5.19822e-17
1.08921e-16
1.52438e-16
7.61393e-18
1.10545e-17
1.92283e-17
3.51115e-17
1.84695e-18
1.8673e-18
3.71593e-18
5.68631e-18
1.11881e-18
3.80373e-19
5.13024e-19
1.09238e-18
1.09146e-18
1.2994e-19
9.64911e-20
1.79764e-19
1.02571e-18
7.54357e-20
2.09666e-20
2.65573e-20
0.536331
0.900922
0.965528
0.965529
0.954095
0.948644
0.950375
0.946717
0.707975
0.473142
0.595382
0.804934
0.749239
0.622595
0.401086
0.159236
0.062753
0.00653634
1.8484e-05
0.549069
0.711342
0.845067
0.731405
0.47343
0.423706
0.49932
0.607287
0.297767
0.135885
0.306506
0.438909
0.149446
0.0348761
0.000433572
0.000121797
0.000116283
0.000168712
0.000145872
0.867798
0.725884
0.372669
0.0391199
6.09141e-18
-1.27374e-20
0.0315297
0.28638
0.308296
0.0413501
0.0415757
0.0410832
0.0204857
0.000194538
0.0012311
0.00369967
0.0039333
0.0032245
0.00387258
0.145524
0.0316844
-2.5631e-23
8.33984e-20
5.45318e-08
6.54904e-21
0.00418194
0.257139
0.455625
0.45564
0.41371
0.0880988
0.00911719
0.000195634
0.00111258
0.00413235
0.00619512
0.00619856
0.00562419
-3.25175e-08
-6.73776e-24
-6.19713e-22
6.43647e-05
0.000158675
0.00015017
5.90971e-05
5.90448e-05
0.0630614
0.218358
0.166837
0.062498
0.00776166
0.00019791
0.000321436
0.000536628
0.00345346
0.00571204
0.00360055
2.87393e-21
5.01956e-05
0.000380837
0.000360922
0.000301529
0.000333558
0.000344875
8.10675e-05
1.71875e-06
1.74872e-06
1.7647e-06
0.0014585
0.00121948
0.000291734
0.000232284
0.000528824
0.00246656
0.0023691
0.001256
0.00134007
0.000420335
0.00201279
0.00264869
0.00224023
0.00227758
0.00231611
0.00180346
0.00110094
0.000964523
0.000809089
0.00063804
0.00053374
0.000270093
4.15182e-05
0.000603188
0.00325108
0.000656577
9.56329e-06
0.00793358
0.0036534
0.00569007
0.00566795
0.00567459
0.00437584
0.00392316
0.00289473
0.00206753
0.00183832
0.00165182
0.00136207
0.0011283
0.00062502
4.14526e-05
0.000866848
0.0032554
0.000970863
8.96556e-06
0.00864291
0.00367725
0.00249608
0.0030101
0.00159182
0.000478557
0.00026345
8.55332e-05
2.23857e-07
1.50515e-07
2.26583e-07
3.06965e-06
1.522e-05
1.85058e-05
4.28622e-05
0.000802754
0.00175326
0.000562269
8.96368e-06
0.00159745
1.31396e-07
1.32591e-10
7.12564e-17
2.02568e-10
5.35794e-11
9.55274e-10
1.76692e-09
5.9222e-07
9.26508e-06
4.70182e-05
6.47085e-05
4.13787e-05
1.66213e-05
1.9886e-05
7.44448e-05
2.34843e-06
2.12723e-05
2.11278e-05
1.20795e-10
1.2088e-10
1.20795e-10
1.10923e-06
1.51474e-05
2.13037e-05
1.10735e-05
2.66628e-06
4.73088e-07
5.9313e-05
0.00011536
0.000114797
0.000113305
6.58595e-05
7.91699e-08
2.03429e-08
1.51952e-08
1.51827e-08
1.8769e-08
1.22432e-10
1.20795e-10
1.22432e-10
4.79546e-07
2.80456e-05
4.2379e-05
4.44209e-05
4.44039e-05
1.38226e-05
7.53406e-06
7.56902e-06
3.93763e-05
5.01282e-05
5.99617e-05
8.96119e-05
8.09109e-05
1.4882e-06
1.51905e-08
5.53099e-08
1.41997e-05
2.04226e-05
2.76959e-06
8.92693e-08
7.01932e-08
1.04671e-05
2.76702e-05
3.00295e-05
3.02866e-05
1.33349e-05
7.04582e-07
6.94716e-07
6.92911e-07
2.42477e-05
4.71932e-05
8.12765e-05
5.87745e-05
2.02826e-07
6.56333e-08
4.07622e-05
6.05904e-05
4.84039e-05
3.37305e-06
2.7855e-07
2.65475e-09
2.32671e-09
2.23136e-09
2.25108e-09
2.2313e-09
2.14538e-06
2.7118e-06
1.59453e-06
1.54293e-06
2.70867e-06
4.61458e-06
1.88335e-05
6.21787e-08
7.33129e-08
5.29686e-05
6.06375e-05
5.25147e-05
2.7999e-05
6.84073e-09
3.86249e-09
8.28367e-07
3.53148e-06
2.30592e-06
2.25108e-09
3.48281e-06
2.10925e-05
1.54409e-05
9.50381e-06
1.5474e-06
1.58143e-06
5.58448e-06
8.04037e-06
8.11705e-08
1.36372e-06
2.9131e-05
2.92127e-05
4.76274e-06
5.89667e-09
4.72127e-09
6.07169e-06
1.28227e-05
8.90805e-06
2.2313e-09
4.84014e-06
2.77748e-05
2.78957e-05
2.79436e-05
1.48577e-05
7.65339e-07
1.17719e-06
2.33269e-06
8.31028e-07
2.48451e-07
9.69107e-09
7.30427e-07
7.37064e-07
1.02903e-05
2.97656e-05
3.02814e-05
1.56223e-05
7.49371e-06
5.7038e-09
4.91096e-09
2.07269e-05
2.76376e-05
2.70846e-05
2.17553e-05
7.57989e-07
6.56924e-06
2.15858e-05
1.84045e-05
1.88374e-08
9.61195e-09
1.78378e-05
3.03455e-05
3.04349e-05
3.03651e-05
2.20747e-05
1.65462e-06
2.3644e-07
1.96879e-07
1.62592e-07
3.45546e-06
2.65866e-05
2.69603e-05
1.49998e-05
9.39334e-07
1.55761e-05
2.19853e-05
2.19467e-05
7.8144e-09
2.38866e-06
1.21086e-05
1.41632e-05
8.43148e-06
1.65537e-06
8.95351e-07
1.11821e-06
1.11154e-06
7.82636e-07
4.27026e-07
9.99453e-08
1.73427e-05
1.6625e-05
1.86315e-06
2.31245e-06
1.51228e-05
2.19866e-05
1.82838e-05
1.22494e-08
6.47213e-09
6.55065e-09
6.63016e-09
6.71128e-09
2.78501e-07
5.71443e-07
3.78481e-07
8.86371e-08
9.79031e-08
3.11856e-07
1.01939e-07
1.73593e-07
3.3876e-07
3.46378e-09
3.36474e-06
1.96164e-05
1.27153e-05
3.1411e-06
7.73e-09
6.39455e-09
1.37002e-08
3.4312e-08
4.42777e-08
8.46487e-09
4.23612e-09
4.19508e-09
4.55831e-09
4.60799e-09
1.64828e-08
1.36817e-08
3.49239e-09
3.49382e-09
3.4763e-09
3.35066e-06
1.85041e-05
3.17646e-06
3.1389e-06
2.4536e-09
1.83163e-09
2.82637e-09
2.62773e-09
2.07466e-09
2.06837e-09
3.85574e-09
4.56172e-09
5.51897e-09
9.59415e-09
2.18538e-08
2.17694e-08
1.38644e-08
4.50901e-09
3.45969e-09
3.44238e-09
1.4704e-05
4.34562e-06
8.48027e-06
6.27439e-10
5.41744e-10
6.17568e-10
6.852e-10
1.05776e-09
2.06727e-09
3.04961e-09
4.18916e-09
5.24358e-09
8.24256e-09
1.63102e-08
2.28208e-08
1.60842e-08
3.78234e-09
3.47656e-09
2.72839e-07
1.63149e-06
6.97608e-06
1.59192e-05
2.02708e-10
2.69479e-10
3.45357e-10
4.52392e-10
6.57074e-10
9.96578e-10
1.45363e-09
1.9996e-09
2.93166e-09
5.57999e-09
1.07263e-08
1.4529e-08
2.02651e-08
9.68414e-09
3.49373e-09
4.3616e-07
1.74464e-06
6.72195e-06
1.5917e-05
1.03476e-10
1.442e-10
2.02931e-10
2.73771e-10
3.86616e-10
5.30535e-10
8.28985e-10
1.38546e-09
2.47395e-09
4.14634e-09
7.50474e-09
1.04934e-08
2.11121e-08
1.90177e-08
1.47815e-08
6.93902e-07
6.44917e-07
1.79997e-06
1.45069e-05
4.75388e-11
7.30828e-11
1.08825e-10
1.57954e-10
2.30136e-10
3.46664e-10
5.59466e-10
9.36997e-10
1.63991e-09
2.82562e-09
5.26721e-09
1.2204e-08
1.96549e-08
4.4528e-08
1.02177e-07
3.51537e-07
1.12482e-07
8.51519e-08
7.14113e-07
2.26807e-11
3.48338e-11
5.29947e-11
8.08162e-11
1.2236e-10
1.89536e-10
3.16404e-10
5.52878e-10
9.78449e-10
1.69628e-09
2.98161e-09
5.86222e-09
9.60804e-09
2.6653e-08
4.1564e-08
3.71978e-08
6.02459e-08
2.83416e-08
2.82047e-08
8.91146e-12
1.46573e-11
2.23871e-11
3.49131e-11
5.54644e-11
8.89239e-11
1.51991e-10
2.74496e-10
4.97756e-10
8.82221e-10
1.47519e-09
2.25569e-09
3.39044e-09
4.64638e-09
1.56033e-08
7.11041e-09
5.61687e-09
5.6018e-09
5.86994e-07
3.68696e-12
5.75558e-12
9.04141e-12
1.40911e-11
2.19919e-11
3.58822e-11
6.36333e-11
1.20508e-10
2.24861e-10
4.24949e-10
7.19474e-10
1.11354e-09
1.85173e-09
1.85415e-09
8.40063e-09
7.93883e-09
4.31735e-09
5.74172e-09
7.80816e-07
1.27845e-12
2.12716e-12
3.33779e-12
5.23969e-12
8.20015e-12
1.35341e-11
2.37565e-11
4.6386e-11
9.5173e-11
2.02477e-10
3.67687e-10
5.23648e-10
6.18613e-10
4.42161e-10
9.66066e-10
4.12425e-09
4.30642e-09
1.34041e-08
1.82492e-07
4.58557e-13
7.35614e-13
1.16134e-12
1.78585e-12
2.80038e-12
4.58197e-12
8.12617e-12
1.53596e-11
2.8798e-11
4.07018e-11
7.93695e-11
1.81091e-10
2.17081e-10
1.05972e-10
1.05603e-10
9.32748e-10
4.60258e-09
2.52369e-08
3.63929e-08
1.51546e-13
2.4413e-13
3.7348e-13
5.53324e-13
8.33181e-13
1.29921e-12
2.1293e-12
3.48353e-12
4.94719e-12
4.30638e-12
8.76559e-12
2.93046e-11
7.65189e-11
5.3077e-11
1.06242e-10
5.80056e-10
3.02986e-09
2.05482e-08
1.2041e-09
4.74323e-14
7.477e-14
1.10766e-13
1.5946e-13
2.29056e-13
3.38627e-13
5.09707e-13
7.62906e-13
1.00406e-12
8.77733e-13
8.22957e-13
3.55571e-12
1.55319e-11
3.04525e-11
3.75523e-11
2.73383e-10
1.14769e-09
3.9981e-09
1.20116e-09
1.32942e-14
2.17172e-14
3.13288e-14
4.36852e-14
6.01339e-14
8.33775e-14
1.18283e-13
1.66804e-13
2.11198e-13
2.14055e-13
1.92947e-13
5.67085e-13
3.35253e-12
1.24847e-11
1.66719e-11
5.52739e-11
3.05313e-10
5.25476e-10
8.44721e-10
3.74682e-15
5.87607e-15
8.50895e-15
1.15683e-14
1.53349e-14
2.04379e-14
2.80893e-14
3.84447e-14
4.87628e-14
5.41636e-14
6.02139e-14
1.54533e-13
7.30283e-13
3.75449e-12
7.9319e-12
9.19692e-12
4.3522e-11
1.29001e-10
3.62808e-10
9.18652e-16
1.51699e-15
2.19304e-15
2.95135e-15
3.85051e-15
5.11183e-15
7.06241e-15
9.96378e-15
1.36301e-14
1.74767e-14
2.3404e-14
4.60497e-14
1.57006e-13
6.39039e-13
2.34499e-12
4.60243e-12
6.33678e-12
4.48171e-11
1.06227e-10
2.19035e-16
3.62092e-16
5.3027e-16
7.18388e-16
9.5677e-16
1.31734e-15
1.9398e-15
3.07073e-15
5.05807e-15
8.43529e-15
1.44295e-14
2.82045e-14
6.9584e-14
2.37848e-13
7.01569e-13
1.5915e-12
2.73161e-12
9.06595e-12
2.20342e-11
4.61237e-17
8.01949e-17
1.19617e-16
1.66867e-16
2.33235e-16
3.45076e-16
5.78037e-16
1.10562e-15
2.28207e-15
4.79252e-15
9.9664e-15
2.03388e-14
4.48391e-14
1.21267e-13
3.47698e-13
7.52826e-13
1.05419e-12
1.56394e-12
2.29818e-12
9.4e-18
1.56736e-17
2.40725e-17
3.58197e-17
5.3096e-17
8.7521e-17
1.74631e-16
4.18931e-16
1.07255e-15
2.72684e-15
6.50155e-15
1.41764e-14
3.01572e-14
7.1456e-14
1.9314e-13
4.33746e-13
5.80409e-13
5.69984e-13
6.26871e-13
1.65684e-18
2.83557e-18
4.52766e-18
7.04852e-18
1.14437e-17
2.16495e-17
5.24404e-17
1.51991e-16
4.69951e-16
1.37402e-15
3.69219e-15
9.08923e-15
2.05116e-14
4.5038e-14
1.07693e-13
2.50633e-13
4.10496e-13
4.46962e-13
3.02701e-13
2.4607e-19
4.4273e-19
7.28406e-19
1.20848e-18
2.20114e-18
4.81303e-18
1.37858e-17
4.90866e-17
1.75094e-16
5.82272e-16
1.75698e-15
4.72139e-15
1.14882e-14
2.58409e-14
5.85784e-14
1.41887e-13
2.7809e-13
3.37858e-13
2.01851e-13
3.56271e-20
6.18388e-20
1.04709e-19
1.86174e-19
3.64712e-19
8.58957e-19
2.80417e-18
1.08676e-17
4.29091e-17
1.55862e-16
5.09914e-16
1.53843e-15
4.23939e-15
1.05057e-14
2.42069e-14
6.05295e-14
1.30918e-13
1.71237e-13
9.2188e-14
)
;

boundaryField
{
    leftWall
    {
        type            zeroGradient;
    }
    rightWall
    {
        type            zeroGradient;
    }
    lowerWall
    {
        type            zeroGradient;
    }
    atmosphere
    {
        type            inletOutlet;
        inletValue      uniform 0;
        value           nonuniform List<scalar> 
46
(
3.60709e-07
2.31165e-07
3.86515e-08
7.97007e-09
3.10144e-09
1.09005e-09
2.26972e-10
2.37019e-11
0
0
0
0
0
0
0
0
0
0
0
0
0
1.09278e-16
2.73998e-17
1.02571e-18
0
0
0
0
0
0
0
0
0
0
0
0
0
0
0
0
0
0
0
1.30918e-13
1.71237e-13
9.2188e-14
)
;
    }
    defaultFaces
    {
        type            empty;
    }
}


// ************************************************************************* //
