/*--------------------------------*- C++ -*----------------------------------*\
| =========                 |                                                 |
| \\      /  F ield         | OpenFOAM: The Open Source CFD Toolbox           |
|  \\    /   O peration     | Version:  2312                                  |
|   \\  /    A nd           | Website:  www.openfoam.com                      |
|    \\/     M anipulation  |                                                 |
\*---------------------------------------------------------------------------*/
FoamFile
{
    version     2.0;
    format      ascii;
    arch        "LSB;label=32;scalar=64";
    class       volScalarField;
    location    "3.35";
    object      alphas;
}
// * * * * * * * * * * * * * * * * * * * * * * * * * * * * * * * * * * * * * //

dimensions      [0 0 0 0 0 0 0];

internalField   nonuniform List<scalar> 
2268
(
2
2
2
2
2
2
2
2
2
2
2
2
2
2
2
2
2
2
2
2
1.99997
1.99995
1.99995
2
2
2
2
2
2
2
2
2
2
2
2
2
2
2
2
2
2
2
2
2
1.99998
1.99998
2
2
2
2
2
2
2
2
2
2
2
2
2
2
2
2
2
2
2
2
2
2
2
2
2
2
2
2
2
2
2
2
2
2
2
2
2
2
2
2
2
2
2
2
2
2
1.99974
1.99984
2
2
1.99999
2
2
2
2
2
2
2
2
2.00001
2
2.00002
1.99608
1.99337
1.99104
1.98709
1.99184
1.9983
1.99058
1.88486
1.91726
1.95892
1.98622
1.99829
1.99978
1.9997
1.99985
1.99992
1.99961
1.99808
1.98845
1.93445
1.8262
1.67546
1.51354
1.27424
1.08205
0.877151
0.768528
0.746346
0.747368
0.80314
0.494027
0.5798
0.72641
0.897664
1.0907
1.20242
1.23788
1.25938
1.21328
1.11769
0.995099
0.827378
0.620188
0.423669
0.224167
0.139275
0.132791
0.138252
0.198739
0.214095
0.157102
0.158242
0.197433
0.00605694
0.00884728
0.00761934
0.00359419
0.0013629
0.042479
0.0456292
0.0125502
0.0198822
0.0147002
0.00723213
0.0228526
0.0567795
0.0301639
0.0254115
0.0339828
0.151836
0.227087
0.2256
0.127772
0.045187
0.0661712
0.159359
1.94276
1.94243
1.95146
1.96988
1.96214
1.94163
1.93914
1.94205
1.94511
1.94635
1.94734
1.94738
1.94699
1.94978
1.95343
1.96571
1.96283
1.9582
1.95741
1.95478
1.95525
1.95897
1.96349
1.96387
1.96477
1.95587
1.93951
1.90449
1.87266
1.87263
1.86919
1.8581
1.86005
1.85915
1.85494
1.85917
1.86459
1.86324
1.54344
1.8244
1.90445
1.91792
1.87755
1.79471
1.63715
1.44311
1.3453
1.31811
1.24039
1.2302
1.34585
1.4524
1.47163
1.46345
1.41054
1.33594
1.26114
0.693562
1.19165
1.45567
1.51867
1.43478
1.018
0.52633
0.522576
0.67544
0.672341
0.388615
0.248225
0.303891
0.453115
0.562568
0.585469
0.674045
0.622093
0.424722
0.480918
0.514908
0.602122
0.388776
0.237365
0.238527
0.248764
0.440819
0.641612
0.609648
0.220137
0.18886
0.189046
0.185005
0.214834
0.186059
0.171267
0.191587
0.133202
0.48525
0.215426
0.158026
0.40289
0.530759
0.532716
0.456985
0.402519
0.627786
0.420257
0.195733
0.184572
0.192231
0.205729
0.216676
0.219505
0.204061
0.192416
0.185372
0.42482
0.0835419
0.111054
0.147682
0.130089
0.0840208
0.0644473
0.099742
0.486513
0.40125
0.210994
0.155174
0.211229
0.320378
0.273933
0.21952
0.217397
0.200675
0.210083
0.316162
0.0438098
0.0554078
0.0555157
0.0627032
0.0660953
0.0683287
0.0732475
0.275621
0.521682
0.470821
0.275563
0.24264
0.351724
0.349198
0.262014
0.291952
0.641986
0.920195
0.00213867
0.00217718
0.00223032
0.00108719
0.00104027
0.000909573
0.00089958
0.00102717
0.00103207
0.00076694
0.00182719
0.044245
0.0586723
0.0542957
0.0297893
0.0721354
0.221726
0.213663
0.107946
0.0183889
0.018611
0.0221372
0.140637
0.00215631
0.00215044
0.0024632
0.00526554
0.00572212
0.00131272
0.00131294
0.00131256
0.00130712
0.000998719
0.00050537
0.00729749
0.0476395
0.0534086
0.0349379
0.0391114
0.0476057
0.0286647
0.0214123
0.0215886
0.0191899
0.0200722
0.090635
0.0649572
0.0209902
0.00765164
0.00855804
0.00638777
0.00807615
0.0102333
0.00838362
0.00664584
0.0242332
0.0265155
0.0190094
0.0177991
0.0271815
0.0281346
0.0415201
0.037912
0.0429512
0.145949
0.220001
0.231708
0.229809
0.231581
0.738694
0.546289
0.374815
0.269021
0.153889
0.160851
0.210686
0.181559
0.125684
0.166868
0.211339
0.0942098
0.0310054
0.0285516
0.0364184
0.176819
0.225571
0.498919
0.865408
0.947091
0.971135
0.995781
1.03019
1.11712
1.04019
0.865957
0.793761
0.80453
0.803876
0.779582
0.696732
0.611149
0.542281
0.463574
0.347819
0.212331
0.18118
0.221259
0.259253
0.728335
1.12069
1.00456
1.0028
1.00342
1.00775
1.04284
1.0827
1.04548
0.99246
0.996462
1.01275
1.01854
1.0447
1.07125
1.06125
1.01841
0.996478
0.976242
0.909461
0.76831
0.736422
0.923847
1.14108
1.16259
1.13772
1.01105
1.00151
1.00127
0.998703
1.04473
1.00121
0.985332
1.00118
1.00099
1.00099
1.00099
1.00129
1.00097
1.00092
1.00087
1.00157
1.02073
1.06896
1.1033
1.11299
1.09383
1.05821
1.03358
1.0222
1.02002
1.00797
0.987049
1.04616
1.12482
1.17727
0.999034
1.0006
1.00008
0.999517
1.00012
1.00127
1.00082
1.00062
1.00044
1.00043
1.00417
1.00969
1.01189
1.01003
1.00358
1.00067
0.998561
0.998252
1.00133
1.03804
1.2617
2.37565
2.57379
2.57576
2.63966
2.46915
2.25229
2.05509
1.9128
1.80029
1.68632
1.57261
1.4939
1.43412
1.38632
1.36499
1.3722
1.41218
1.49045
1.61689
1.77451
2.02099
2.30513
2.59096
2.94132
2.96185
2.99881
2.99903
2.99931
2.99867
2.99736
2.99719
2.99806
2.99825
2.99576
2.98942
2.98811
2.99139
2.99025
2.98319
2.95935
2.90084
2.89621
2.91704
2.95398
2.99198
2.99107
2.99716
2.99998
2.99997
2.99993
3
3
3
2.99998
2.99977
2.99933
2.99949
2.99999
2.99999
3
3
2.99999
2.99576
2.95011
2.93812
2.98973
2.99995
2.99994
2.9912
2.99774
2.99999
3
3
3
3
3
3
3
3
2.99998
2.99995
2.99995
2.99995
2.99994
2.99996
2.99986
2.99815
3
3
2.99987
2.9994
2.99582
2.99942
3
3
3
3
3
3
3
2.99999
3
2.99999
2.99999
2.99999
3
2.99997
2.99995
2.99994
2.99998
3
3
2.99999
2.99997
3
3
3
3
3
3
2.99999
2.99995
2.99995
2.99999
3
3
3
3
3
3
2.99998
2.99998
2.99999
3
3
2.99992
2.99985
3
3
3
3
2.99999
2.99995
2.99994
2.99994
2.99996
2.99997
2.99997
2.99998
2.99999
2.9999
2.99983
2.99983
2.99987
2.9999
2.99996
2.9999
2.99987
2.99986
2.99987
3
3
3
3
2.99997
2.99996
2.99998
2.99995
2.99981
2.99979
2.99979
2.9998
2.9998
2.99979
2.99982
2.99989
2.99993
2.99994
2.99996
2.99997
2.99998
3
3
3
3
3
3
2.99999
3
3
2.99993
2.9998
2.99981
2.9999
2.99994
2.99993
2.99992
2.99996
2.99999
2.99999
3
3
3
3
3
3
3
3
3
3
3
3
2.99999
2.99998
2.99998
2.99999
3
3
3
3
3
3
3
3
3
3
3
3
3
3
3
3
3
3
3
3
3
3
3
3
3
3
3
3
3
3
3
3
3
3
3
3
3
3
3
3
3
3
3
3
3
3
3
3
3
3
3
3
3
3
3
3
3
3
3
3
3
3
3
3
3
3
3
3
3
3
3
3
3
3
3
3
3
3
3
3
3
3
3
3
3
3
3
3
3
3
3
3
3
3
3
3
3
3
3
3
3
3
3
3
3
3
3
3
3
3
3
3
3
3
3
3
3
3
3
3
3
3
3
3
3
3
3
3
3
3
3
3
3
3
3
3
3
3
3
3
3
3
3
3
3
3
3
3
3
3
3
3
3
3
3
3
3
3
3
3
3
3
3
3
3
3
3
3
3
3
3
3
3
3
3
3
3
3
3
3
3
3
3
3
3
3
3
3
3
3
3
3
3
3
3
3
3
3
3
3
3
3
3
3
3
3
3
3
3
3
3
3
3
3
3
3
3
3
3
3
3
3
3
3
3
3
3
3
3
3
3
3
3
3
3
3
3
3
3
3
3
3
3
3
3
3
3
3
3
3
3
3
3
3
3
3
3
3
3
3
3
3
3
3
3
3
3
3
3
3
3
3
3
3
3
3
3
3
3
3
3
3
3
3
3
3
3
3
3
3
3
3
3
3
3
3
3
3
3
3
3
3
3
3
3
3
3
3
3
3
3
3
3
3
3
3
3
3
3
3
3
3
3
3
3
3
3
3
3
3
3
3
3
3
3
3
3
3
3
3
3
3
3
3
3
3
3
3
3
3
3
3
3
3
3
3
3
3
3
3
3
3
3
3
3
3
3
3
3
3
3
3
3
3
3
3
3
3
3
3
3
3
3
3
3
3
3
3
3
3
3
3
3
3
3
3
3
3
3
3
3
3
3
3
3
3
3
3
3
3
3
3
3
3
3
3
3
3
3
3
3
3
3
3
3
3
3
3
3
3
3
3
3
3
3
3
3
3
3
3
3
3
3
3
3
3
3
3
3
3
3
3
3
3
3
3
3
3
3
3
3
3
3
3
3
3
3
3
3
3
3
3
3
3
3
3
3
3
3
3
3
3
3
3
3
3
3
3
3
3
3
3
3
3
3
3
3
3
3
3
3
3
3
3
3
3
3
3
3
3
3
3
3
3
3
3
3
3
3
3
3
3
3
3
3
3
3
3
3
3
3
3
3
3
3
3
3
3
3
3
3
3
3
3
3
3
3
3
3
3
3
3
3
3
3
3
3
3
3
3
3
3
3
3
3
0.383362
0.597781
0.590287
0.58951
0.147213
0.296611
0.55499
0.594337
0.1634
0.163814
0.136295
0.133259
0.979345
0.930904
0.892035
0.898653
1.01848
1.00144
1.0015
1.00273
0.998868
1.00071
1.00131
1.00222
0.989199
0.999091
1.00413
1.00399
1.14464
1.34539
1.57443
1.69996
2.566
2.7758
2.8828
2.9282
2.99675
2.99909
2.99603
2.99598
2.99998
3
3
3
2.99994
3
3
3
2.99992
2.99993
2.99996
3
2.99985
2.99985
2.99985
2.99996
2.9999
2.99997
2.99999
3
3
2.99999
2.99999
3
3
3
3
3
3
3
3
3
3
3
3
3
3
3
3
3
3
3
3
3
3
3
3
3
3
3
3
3
3
3
3
3
3
3
3
3
3
3
3
3
3
3
3
3
3
3
3
3
3
3
3
3
3
3
3
3
3
3
3
3
3
3
3
3
3
3
3
3
3
3
3
3
3
3
3
3
3
3
3
3
3
3
3
3
3
3
3
3
3
3
3
3
3
3
3
3
3
3
3
3
3
3
3
3
0.509537
0.113396
0.0479302
0.0677866
0.105654
0.120393
0.117902
0.129278
0.529984
0.771236
0.585232
0.276375
0.454634
0.582792
0.804296
1.04615
1.02656
1.00981
1.0132
0.538843
0.319614
0.193403
0.363393
0.684339
0.758703
0.693628
0.665787
0.952246
0.984958
0.749202
0.59781
1.0299
1.1705
1.1197
1.02552
1.02136
1.01134
1.01124
0.17863
0.366002
0.751374
1.0828
1.0767
1.07011
1.17357
1.08564
0.993714
0.992641
0.982066
0.983324
1.01867
1.07501
1.00878
1.00536
1.00211
1.00549
1.00424
0.982156
1.09882
1.08799
1.01492
1.00846
1.00652
1.10669
1.11495
0.91652
0.916584
0.910691
1.08668
1.04038
1.00336
1.00496
1.01587
1.01247
1.00216
1.00297
1.00946
1.00904
1.0019
1.00153
1.00127
1.00126
1.00159
1.08659
1.26925
1.15505
1.20692
1.15416
1.09681
1.00403
1.00281
1.07104
1.12186
1.01146
1.00727
1.00183
1.00111
1.00082
1.00093
1.00111
1.00101
1.00097
1.00155
1.00216
1.04256
1.07835
1.04962
1.03004
1.00375
1.00385
1.09623
1.75816
1.10068
1.01484
1.0053
1.01896
1.0333
1.06109
1.11695
1.19623
1.25036
1.2672
1.27403
1.27798
1.24651
1.22821
1.23549
1.27951
1.19969
1.19201
1.76737
1.21858
1.01904
1.8866
2.14591
2.25443
2.36999
2.50654
2.63959
2.70784
2.74098
2.76557
2.77352
2.76803
2.76677
2.78947
2.84721
2.74477
2.26399
2.66122
1.96334
1.04777
2.97077
2.9878
2.99167
2.99059
2.99492
2.99825
2.99899
2.99956
2.99968
2.99977
2.99991
2.99997
2.99995
2.99994
2.99947
2.99572
2.98516
2.83708
2.17667
2.99521
3
3
3
3
3
3
3
3
2.99997
2.99979
2.9997
2.99982
2.99995
2.99993
2.99919
2.99996
2.99978
2.99948
3
3
3
3
2.99995
2.99994
2.99997
2.99999
2.99999
2.9998
2.99951
2.99935
2.99934
2.99967
3
3
3
3
3
3
3
3
2.99999
2.99991
2.99987
2.99986
2.99987
2.99995
2.99997
2.99997
2.99975
2.99942
2.9994
2.9994
2.99975
3
3
3
2.99995
2.99993
2.99999
3
2.99999
2.99995
2.9999
2.9999
2.99991
2.99996
3
3
2.99995
2.99949
2.99942
2.99955
2.99982
3
3
2.99987
2.99977
2.99979
2.99997
3
2.99999
2.99996
2.99997
2.99999
3
2.99999
2.99999
2.99999
2.99992
2.9995
2.9998
2.99994
3
3
2.99984
2.99975
2.99976
2.99984
2.99999
3
2.99998
2.99993
2.99993
2.99999
2.99998
2.99991
2.99992
2.9999
2.9995
2.99999
2.99998
2.99997
3
3
2.99983
2.99982
2.99992
3
3
2.99998
2.9999
2.99991
2.99998
2.99998
2.99966
2.99943
2.99941
2.9997
2.99999
2.99999
2.99993
2.99985
3
2.99996
2.99996
2.99998
2.99997
2.99991
2.99988
2.9999
2.99993
3
3
2.99957
2.99935
2.99935
2.99958
2.99999
2.99992
2.99945
2.99945
3
3
2.99992
2.99986
2.99986
2.99986
2.99989
2.99997
3
3
3
2.99992
2.99936
2.99935
2.99958
2.99999
2.99978
2.99944
2.99944
2.99999
2.99998
2.99995
2.99994
2.99996
2.99999
2.99999
2.99999
2.99999
2.99999
3
3
2.99977
2.99942
2.99984
2.99998
2.99991
2.99944
2.99945
3
3
3
3
3
3
3
3
3
3
3
3
3
2.99996
3
2.99997
2.9998
2.99953
2.99952
3
3
3
3
3
3
3
3
3
3
3
3
3
3
3
2.99997
2.99973
2.99995
2.99991
3
3
3
3
3
3
3
3
3
3
3
3
3
3
3
3
2.99988
2.99995
2.99986
3
3
3
3
3
3
3
3
3
3
3
3
3
3
3
3
2.99999
2.9999
2.99961
3
3
3
3
3
3
3
3
3
3
3
3
3
3
3
3
2.99999
2.99989
2.99961
3
3
3
3
3
3
3
3
3
3
3
3
3
3
3
3
3
2.99999
2.99965
3
3
3
3
3
3
3
3
3
3
3
3
3
3
3
3
3
3
2.99999
3
3
3
3
3
3
3
3
3
3
3
3
3
3
3
3
3
3
3
3
3
3
3
3
3
3
3
3
3
3
3
3
3
3
3
3
3
2.99999
3
3
3
3
3
3
3
3
3
3
3
3
3
3
3
3
3
3
2.99999
3
3
3
3
3
3
3
3
3
3
3
3
3
3
3
3
3
3
3
3
3
3
3
3
3
3
3
3
3
3
3
3
3
2.99999
2.99999
3
3
3
3
3
3
3
3
3
3
3
3
3
3
3
3
3
2.99999
2.99999
2.99999
3
3
3
3
3
3
3
3
3
3
3
3
3
3
3
3
3
2.99999
2.99999
2.99999
2.99999
3
3
3
3
3
3
3
3
3
3
3
3
3
3
3
3
2.99999
2.99999
3
3
3
3
3
3
3
3
3
3
3
3
3
3
3
3
3
3
3
3
3
3
3
3
3
3
3
3
3
3
3
3
3
3
3
3
3
3
3
3
3
3
3
3
3
3
3
3
3
3
3
3
3
3
3
3
3
3
3
3
3
3
3
3
3
3
3
3
3
3
3
3
3
3
3
3
3
3
3
3
3
3
3
3
3
3
3
3
3
3
3
3
3
3
3
3
3
3
3
3
3
3
3
3
3
3
3
3
3
3
3
3
3
3
3
3
3
3
3
3
3
3
3
3
3
3
3
3
3
3
3
3
3
3
3
3
3
3
3
3
3
3
3
3
3
3
3
3
3
3
3
3
3
)
;

boundaryField
{
    leftWall
    {
        type            calculated;
        value           nonuniform List<scalar> 
50
(
2
2
2
2
1.99974
1.88486
0.494027
0.00605694
0.00213867
0.00215631
0.0649572
0.738694
1.11712
1.0827
1.04473
1.04616
1.2617
2.59096
2.99107
2.9912
2.99582
3
3
3
3
3
3
3
3
3
3
3
3
3
3
3
3
3
3
3
3
3
3
3
3
3
3
3
3
3
)
;
    }
    rightWall
    {
        type            calculated;
        value           nonuniform List<scalar> 
50
(
1.95741
1.86324
1.26114
0.424722
0.133202
0.185372
0.210083
0.920195
1.0132
1.01124
1.00424
1.00297
1.00727
1.01484
1.01904
1.04777
2.17667
2.99948
3
3
3
3
3
2.99985
2.99945
2.99944
2.99945
2.99952
2.99991
2.99986
2.99961
2.99961
2.99965
2.99999
3
2.99999
2.99999
3
3
3
2.99999
3
3
3
3
3
3
3
3
3
)
;
    }
    lowerWall
    {
        type            calculated;
        value           nonuniform List<scalar> 
62
(
2
2
2
2
2
2
2
2
2
2
2
2
2
2
2
2
2
2
2
2
1.99997
1.99995
1.99995
1.99995
1.99998
2
2
1.99058
0.80314
0.197433
0.159359
0.383362
0.597781
0.590287
0.58951
1.94276
1.95478
1.54344
0.693562
0.480918
0.48525
0.42482
0.316162
1.94276
1.94243
1.95146
1.96988
1.96214
1.94163
1.93914
1.94205
1.94511
1.94635
1.94734
1.94738
1.94699
1.94978
1.95343
1.96571
1.96283
1.9582
1.95741
)
;
    }
    atmosphere
    {
        type            calculated;
        value           nonuniform List<scalar> 
46
(
3
3
3
3
3
3
3
3
3
3
3
3
3
3
3
3
3
3
3
3
3
3
3
3
3
3
3
3
3
3
3
3
3
3
3
3
3
3
3
3
3
3
3
3
3
3
)
;
    }
    defaultFaces
    {
        type            empty;
    }
}


// ************************************************************************* //
