/*--------------------------------*- C++ -*----------------------------------*\
| =========                 |                                                 |
| \\      /  F ield         | OpenFOAM: The Open Source CFD Toolbox           |
|  \\    /   O peration     | Version:  2312                                  |
|   \\  /    A nd           | Website:  www.openfoam.com                      |
|    \\/     M anipulation  |                                                 |
\*---------------------------------------------------------------------------*/
FoamFile
{
    version     2.0;
    format      ascii;
    arch        "LSB;label=32;scalar=64";
    class       volScalarField;
    location    "3.35";
    object      alpha.oil;
}
// * * * * * * * * * * * * * * * * * * * * * * * * * * * * * * * * * * * * * //

dimensions      [0 0 0 0 0 0 0];

internalField   nonuniform List<scalar> 
2268
(
7.28552e-10
6.98628e-10
5.39066e-10
4.20532e-10
4.18119e-10
4.20532e-10
4.18119e-10
5.19694e-10
4.15314e-10
2.61864e-10
1.73593e-10
1.44619e-10
1.53697e-10
1.98133e-10
2.77871e-10
4.31031e-10
7.69079e-10
1.21772e-09
1.52971e-09
1.53255e-09
2.86135e-05
5.28167e-05
5.2661e-05
6.2581e-10
6.23608e-10
5.38849e-10
1.18357e-08
1.81496e-08
1.61121e-08
1.14532e-08
6.51863e-09
3.86161e-09
1.78693e-09
8.77672e-10
7.78821e-10
1.10108e-09
5.56301e-10
4.73706e-10
6.37957e-10
1.12342e-09
2.08976e-09
3.46433e-09
1.53536e-09
3.19363e-06
2.21165e-05
2.45089e-05
6.23534e-10
6.22677e-10
1.37307e-07
4.88396e-08
4.68801e-07
7.78865e-07
3.93513e-07
9.01093e-09
1.02985e-09
1.43903e-09
1.99999e-09
2.66994e-09
8.94868e-09
3.11401e-08
1.51457e-08
1.9457e-09
1.05747e-09
2.13618e-09
3.1442e-09
2.27779e-09
7.46165e-13
7.53454e-13
7.60056e-13
6.2064e-10
6.21951e-10
3.0505e-07
8.43479e-08
1.19095e-06
1.5479e-06
6.33523e-07
9.92367e-19
2.42697e-10
4.39627e-10
6.01669e-10
7.835e-10
2.67288e-09
3.85947e-08
3.63514e-08
8.24931e-09
7.39425e-13
7.31988e-13
7.25102e-13
7.31988e-13
7.39425e-13
7.4539e-13
2.28327e-06
0.000256306
0.000159928
1.33786e-07
8.46955e-08
8.33329e-06
1.84423e-06
3.26894e-08
-1.59267e-21
1.55782e-21
-2.93121e-29
2.11018e-27
-8.46093e-11
2.08464e-16
7.68588e-09
1.61115e-09
1.44674e-09
0.00391969
0.00664325
0.00895558
0.00960476
0.00816022
0.00301235
0.00169801
0.00578251
0.00544937
0.0029973
0.000661616
0.000111389
0.000224042
0.000296756
0.00015787
0.000109876
0.000494817
0.00209212
0.00198121
5.10834e-05
7.65156e-09
1.94777e-06
0.0156702
0.0248288
0.0235878
0.024021
0.0297475
0.0237456
0.0104953
0.00369315
0.00729527
0.0072953
0.00729529
0.00244651
0.000127087
0.000389592
0.00057563
0.000443137
0.000449381
0.00222274
0.00259126
0.00185977
0.000992834
0.0100082
0.0130321
0.0126046
0.0173395
0.04972
0.0849726
0.0849411
0.0328261
0.0112681
0.0118482
0.00408378
0.00533969
0.00364168
0.00103304
8.77089e-05
9.41376e-05
0.000574248
0.00059292
0.000870483
0.000789152
0.000823761
0.0216844
0.0539378
0.0273377
0.0115393
0.0135711
0.0958561
0.14621
0.145725
0.0658508
0.00044154
0.000440543
0.000462513
0.0273775
0.027371
0.0273703
0.0273624
0.0273618
0.0273479
0.0273578
0.0273588
0.028195
0.0294092
0.0303231
0.0305661
0.0317582
0.0345514
0.0360566
0.0353257
0.0344911
0.0344753
0.0344753
0.0273795
0.0274513
0.0273618
0.0273624
0.027352
0.0273532
0.0350547
0.0507559
0.0849228
0.12414
0.124268
0.128149
0.138824
0.136289
0.137194
0.146489
0.150415
0.144081
0.139088
0.0274176
0.135938
0.08209
0.0688295
0.1115
0.200649
0.260302
0.404162
0.513666
0.520304
0.495257
0.478788
0.479707
0.481148
0.485439
0.508743
0.52292
0.523693
0.523841
0.25638
0.471013
0.471014
0.442073
0.38469
0.235633
0.208907
0.399512
0.54522
0.545201
0.27657
0.151401
0.181924
0.26324
0.319339
0.362696
0.484281
0.521365
0.37012
0.470981
0.470967
0.450949
0.247594
0.166438
0.164727
0.182282
0.400888
0.545198
0.480108
0.0755469
0.0529161
0.0524689
0.056746
0.0593828
0.0680064
0.132766
0.15312
0.0946378
0.468887
0.206008
0.143156
0.359113
0.463287
0.461095
0.385869
0.32355
0.545168
0.290114
0.0597885
0.056634
0.0513196
0.0510457
0.0511798
0.0511958
0.058932
0.063313
0.0657847
0.40393
0.0706328
0.0627847
0.0816324
0.0658198
0.0248153
0.0146611
0.014661
0.387446
0.351513
0.16065
0.0821356
0.0515228
0.0510509
0.0510366
0.0511558
0.0518161
0.0572187
0.0727576
0.297823
0.0281846
0.0170705
0.0170467
0.0147832
0.0146764
0.0146623
0.0146613
0.0347041
0.394524
0.395028
0.168692
0.0509888
0.0509372
0.0510564
0.0510038
0.134325
0.500962
0.809354
0.000152792
0.000122087
8.68925e-05
8.68727e-05
5.39124e-05
0.000105848
0.000145999
0.000122227
0.000123734
0.000214337
0.0017242
0.0419225
0.0537867
0.0444395
0.0116516
0.0371101
0.143753
0.146247
0.071867
0.000648554
0.000671376
0.000527231
0.000474591
0.000154028
0.000147562
8.56486e-05
-4.45594e-15
-2.22876e-25
3.23174e-07
2.20881e-12
-9.49959e-24
2.2436e-06
0.000142154
0.000414897
0.00713228
0.0435668
0.0453674
0.0219396
0.0100715
0.0223383
0.00731098
0.00177801
0.00194011
0.00325837
0.00281709
0.000445161
0.0600648
0.01847
-1.10215e-13
-3.66966e-12
-2.65774e-11
2.16494e-26
-2.52544e-31
-1.51383e-23
8.0472e-06
0.00281607
2.05052e-05
0.00147053
0.0099663
0.0182464
0.0119317
0.0030259
0.00348422
0.00345028
0.0376212
0.106156
0.152433
0.195779
0.194331
0.536294
0.458816
0.235952
0.142439
0.105647
0.0736952
0.0639101
0.0691147
0.0244968
1.74593e-11
1.77471e-11
1.74593e-11
0.000584431
0.00165156
0.000453007
0.000348127
0.00359531
0.394484
0.784754
0.830345
0.855976
0.905375
0.894179
0.914878
0.886027
0.823486
0.726009
0.665377
0.650067
0.629839
0.515267
0.399738
0.330854
0.251092
0.132421
0.0264517
0.000340543
0.00033313
0.0139839
0.472681
0.883366
0.996852
0.998083
0.998058
0.995613
0.976662
0.956645
0.974314
0.975647
0.981803
0.993316
0.990716
0.977621
0.958821
0.954779
0.960853
0.945983
0.855899
0.670594
0.525922
0.493932
0.678228
0.893831
0.918101
0.93107
0.993764
0.998175
0.998189
0.998695
0.975488
0.976917
0.978297
0.999285
0.999502
0.999502
0.999499
0.999347
0.999509
0.99952
0.99952
0.999213
0.989634
0.96546
0.94743
0.943409
0.953084
0.970894
0.982736
0.987885
0.988942
0.9913
0.987041
0.971717
0.891721
0.865919
0.997874
0.999503
0.999075
0.998511
0.999111
0.999349
0.999519
0.999454
0.999453
0.999451
0.997756
0.995128
0.994054
0.994976
0.997738
0.998282
0.998256
0.99775
0.982771
0.949372
0.862538
0.264997
0.167271
0.211404
0.179685
0.263189
0.371584
0.471254
0.543535
0.599712
0.656444
0.706406
0.741888
0.771777
0.795676
0.806406
0.807788
0.793258
0.753614
0.688919
0.596625
0.457459
0.314734
0.199825
-1.33445e-18
2.65529e-20
-3.74247e-19
1.77917e-19
5.66603e-20
-1.12595e-26
-6.0152e-27
1.21355e-26
-1.17128e-24
2.81726e-27
-3.25541e-24
-2.18817e-10
-8.52027e-10
-1.68803e-20
0.00325145
0.00796208
0.0150254
0.0180884
0.0202554
0.00870937
4.33248e-14
3.5433e-14
1.09082e-08
2.13836e-05
4.96177e-06
9.51059e-10
1.83897e-19
8.26404e-08
2.04251e-07
1.71211e-07
2.75484e-08
1.30785e-11
2.02755e-12
2.32477e-06
4.61453e-08
5.65874e-09
5.10148e-08
3.83521e-13
-1.17158e-08
-9.54351e-21
1.81864e-29
6.06946e-19
1.36699e-13
9.42824e-08
5.07944e-07
1.0778e-08
2.18806e-05
4.4474e-06
-6.71229e-12
3.08751e-08
1.07759e-07
1.20143e-07
2.06966e-08
-9.75227e-27
-2.94411e-14
5.10818e-08
8.71349e-08
3.61387e-08
9.16863e-09
4.30304e-06
1.94018e-05
1.63187e-05
1.77463e-06
3.31097e-09
1.65589e-08
4.19985e-08
6.86092e-07
4.46138e-06
1.06763e-08
7.48522e-07
6.53618e-07
1.18266e-07
4.00078e-08
7.44023e-08
6.59943e-08
1.59898e-08
1.48352e-06
2.70134e-06
1.24893e-06
1.19789e-07
-1.51028e-14
1.01688e-09
1.28529e-11
1.42209e-05
2.41587e-05
2.45379e-05
8.19273e-06
4.81983e-07
4.79322e-08
2.04792e-06
1.18454e-05
1.82512e-08
1.0769e-08
1.01661e-07
6.4382e-08
9.63561e-08
1.50407e-07
3.37982e-06
2.33892e-05
2.21847e-05
3.83608e-06
-3.04901e-10
-8.98839e-13
-1.3733e-14
2.63877e-28
1.24382e-11
3.43734e-09
8.91265e-06
1.23524e-05
3.80098e-06
8.67998e-07
1.12546e-07
3.71703e-05
6.19436e-05
2.15439e-08
1.01196e-08
1.39023e-08
1.84735e-07
2.73687e-06
2.2059e-05
2.6847e-05
2.68051e-05
1.68047e-05
1.40466e-05
1.29987e-05
7.50635e-06
3.20388e-06
2.78273e-05
3.22741e-05
2.88266e-05
8.65685e-06
3.33771e-06
2.61776e-06
4.33779e-05
6.21649e-05
6.21295e-05
6.19571e-05
2.09608e-08
8.50134e-09
9.27471e-09
6.34948e-07
1.62585e-05
1.88802e-05
7.80061e-06
2.58231e-05
7.21923e-05
7.18928e-05
7.43884e-05
7.44663e-05
5.04566e-05
4.28538e-05
2.95866e-05
5.1227e-06
1.44662e-05
1.8666e-05
1.86517e-05
1.20626e-05
7.48911e-06
1.47351e-06
8.16584e-11
2.04303e-08
7.4353e-09
7.20911e-09
9.53623e-07
5.11914e-06
1.24587e-06
1.12372e-06
2.74809e-05
6.71646e-05
6.15465e-05
3.66991e-05
1.83906e-05
1.43422e-05
1.08255e-05
4.46498e-06
4.12177e-06
3.16151e-06
5.92073e-07
2.39586e-08
1.28781e-08
1.23335e-08
2.13117e-08
1.26864e-07
2.03337e-08
5.93625e-09
1.11234e-08
6.38935e-08
2.22188e-08
2.23283e-08
2.43947e-06
7.73115e-06
6.2426e-06
1.9792e-06
3.96966e-08
8.7606e-09
8.90277e-09
8.76107e-09
8.9023e-09
7.35833e-08
1.18727e-08
1.18311e-08
1.20912e-08
1.21453e-08
1.25593e-08
3.57935e-08
6.74291e-07
2.09682e-08
4.48208e-09
8.87427e-09
9.81354e-09
1.39608e-08
3.73626e-08
5.20722e-07
1.10325e-08
1.10838e-08
1.11048e-08
1.11467e-08
1.28828e-08
1.5424e-08
1.0936e-08
1.16795e-08
1.63047e-08
1.41846e-08
1.17899e-08
1.19076e-08
1.3786e-08
1.36333e-08
7.055e-09
5.85015e-09
2.17806e-08
3.45807e-09
7.15635e-09
1.68251e-08
3.80971e-08
6.33043e-08
5.18569e-08
4.89143e-08
3.95668e-08
2.11077e-08
1.16509e-08
1.0231e-08
1.05972e-08
7.42192e-09
6.20151e-09
6.1325e-09
6.84304e-09
7.37362e-09
7.53616e-09
7.15306e-09
5.96402e-09
5.5144e-09
5.79592e-09
2.25519e-08
2.72703e-09
5.22336e-09
1.3257e-08
3.13484e-08
5.64384e-08
5.88794e-08
6.41354e-08
4.75408e-08
2.13086e-08
9.08176e-09
6.30228e-09
5.5593e-09
4.50697e-09
3.75917e-09
3.25597e-09
3.20657e-09
3.5786e-09
4.0919e-09
4.53996e-09
4.97076e-09
5.22217e-09
6.19262e-09
2.25546e-08
2.23971e-09
3.35134e-09
7.39341e-09
1.50728e-08
2.65238e-08
3.41065e-08
3.28605e-08
2.1022e-08
8.89207e-09
4.6153e-09
3.78499e-09
3.34659e-09
2.77862e-09
2.31596e-09
2.03188e-09
1.91782e-09
1.98036e-09
2.21862e-09
2.68097e-09
2.95934e-09
3.84183e-09
4.31556e-09
1.81118e-08
1.96544e-09
2.21147e-09
3.51232e-09
5.31946e-09
7.99976e-09
8.6487e-09
7.67259e-09
5.14536e-09
2.71056e-09
1.90458e-09
1.74673e-09
1.51884e-09
1.25641e-09
1.07802e-09
1.00917e-09
1.03253e-09
1.13433e-09
1.32621e-09
1.65195e-09
2.0429e-09
2.25024e-09
3.00167e-09
4.3012e-09
2.04705e-09
1.85015e-09
2.0649e-09
2.12391e-09
2.27674e-09
2.00839e-09
1.67083e-09
1.23288e-09
8.66615e-10
7.07107e-10
6.2031e-10
5.30496e-10
4.65718e-10
4.47714e-10
4.67801e-10
5.19643e-10
6.00324e-10
7.35687e-10
9.61357e-10
1.15829e-09
1.53252e-09
1.72006e-09
2.91203e-09
2.64631e-09
2.02203e-09
1.89754e-09
1.59279e-09
1.33284e-09
1.02451e-09
8.06478e-10
5.97756e-10
4.37545e-10
3.24616e-10
2.46192e-10
1.95432e-10
1.74379e-10
1.80285e-10
2.03511e-10
2.40377e-10
2.93815e-10
3.71593e-10
5.03885e-10
6.82447e-10
7.99152e-10
1.11494e-09
3.01182e-09
2.96599e-09
2.54792e-09
2.19878e-09
1.73906e-09
1.38608e-09
1.08535e-09
8.33419e-10
6.18743e-10
4.49468e-10
3.10036e-10
1.98891e-10
1.26585e-10
8.8381e-11
7.62367e-11
8.17401e-11
9.91629e-11
1.26989e-10
1.69678e-10
2.49657e-10
3.07314e-10
4.77526e-10
5.66726e-10
3.77025e-09
3.40527e-09
2.9387e-09
2.53437e-09
1.97821e-09
1.60264e-09
1.29906e-09
1.01299e-09
7.92624e-10
6.17603e-10
4.55009e-10
2.93649e-10
1.6768e-10
8.68358e-11
4.72552e-11
3.46549e-11
3.69563e-11
4.7961e-11
6.74007e-11
1.05289e-10
1.57056e-10
2.05655e-10
3.2431e-10
4.30746e-09
3.75405e-09
3.10296e-09
2.16762e-09
1.475e-09
1.43012e-09
1.4271e-09
1.05445e-09
8.91616e-10
7.81453e-10
6.40119e-10
4.43379e-10
2.62495e-10
1.31646e-10
5.67679e-11
2.44337e-11
1.53168e-11
1.69744e-11
2.4996e-11
4.2656e-11
6.11896e-11
1.12074e-10
1.56553e-10
4.90449e-09
4.01949e-09
3.38989e-09
1.09642e-09
7.64442e-10
7.51682e-10
7.48472e-10
7.29077e-10
7.79644e-10
8.24932e-10
7.82862e-10
5.96699e-10
3.82336e-10
2.0341e-10
8.76195e-11
3.17076e-11
1.14276e-11
6.79544e-12
8.80426e-12
1.595e-11
2.97246e-11
4.85265e-11
8.78382e-11
5.24442e-09
4.65499e-09
5.44458e-09
2.78238e-08
1.05872e-07
5.27895e-08
5.3593e-10
5.31552e-10
5.69441e-10
7.71579e-10
8.63013e-10
7.14816e-10
4.92563e-10
2.82297e-10
1.29472e-10
4.80192e-11
1.49971e-11
4.97311e-12
3.68265e-12
6.50115e-12
1.18404e-11
2.82062e-11
4.73439e-11
5.90091e-09
8.03661e-09
1.29223e-08
6.25426e-08
8.43984e-07
8.17755e-07
2.19493e-07
5.30926e-10
5.34802e-10
6.89372e-10
9.03283e-10
7.86825e-10
5.66846e-10
3.47824e-10
1.737e-10
6.86813e-11
2.17524e-11
5.95589e-12
2.24801e-12
2.98597e-12
6.76111e-12
1.43714e-11
2.98e-11
5.94367e-09
1.60642e-08
6.30127e-08
7.22181e-07
8.59857e-07
8.5987e-07
5.86306e-07
5.31088e-10
6.17247e-10
6.86427e-10
9.35093e-10
8.22399e-10
5.94659e-10
3.82524e-10
2.0603e-10
8.78609e-11
2.96935e-11
7.99249e-12
2.13818e-12
1.44291e-12
2.83156e-12
8.90055e-12
1.76785e-11
6.39387e-09
1.64332e-08
1.84768e-07
8.59857e-07
8.5987e-07
8.59871e-07
1.12871e-07
5.31017e-10
1.04444e-09
7.00148e-10
9.4342e-10
8.33477e-10
5.84919e-10
3.76667e-10
2.0979e-10
9.62097e-11
3.58552e-11
1.02085e-11
2.46455e-12
9.60532e-13
1.69062e-12
4.39536e-12
1.13411e-11
6.55823e-09
1.41616e-08
1.76072e-07
8.59857e-07
8.59857e-07
6.2073e-07
1.19484e-08
3.29537e-09
1.50618e-09
6.83384e-10
9.03853e-10
8.09479e-10
5.49343e-10
3.41262e-10
1.89957e-10
9.03942e-11
3.62895e-11
1.13729e-11
2.80067e-12
6.87491e-13
6.4941e-13
2.45002e-12
5.86262e-12
6.61577e-09
1.28622e-08
1.03122e-07
3.17751e-07
4.672e-07
1.69874e-07
5.8095e-08
2.13441e-08
2.11038e-09
7.24015e-10
7.70675e-10
7.25579e-10
4.81938e-10
2.80333e-10
1.50489e-10
7.31454e-11
3.07505e-11
1.05954e-11
2.7941e-12
6.26875e-13
3.63124e-13
9.26302e-13
3.14227e-12
9.12423e-09
1.19341e-08
2.49994e-08
3.51995e-08
6.51272e-08
5.13855e-08
7.88051e-08
3.44984e-08
2.9623e-09
8.78818e-10
6.41373e-10
5.87975e-10
3.84972e-10
2.14159e-10
1.06187e-10
4.94851e-11
2.13097e-11
7.99604e-12
2.35945e-12
5.26511e-13
1.79207e-13
4.13484e-13
1.29315e-12
3.03467e-08
1.12314e-08
1.11101e-08
2.51483e-08
4.31312e-08
1.98726e-07
1.72919e-07
2.92627e-08
3.99977e-09
1.00084e-09
4.85494e-10
4.22928e-10
2.75649e-10
1.44331e-10
6.4512e-11
2.74055e-11
1.17366e-11
4.62298e-12
1.53958e-12
3.82296e-13
9.33859e-14
1.10252e-13
5.7166e-13
3.14105e-08
1.1112e-08
1.11057e-08
3.66286e-08
1.8289e-07
2.14327e-07
1.38984e-07
2.51781e-08
4.10214e-09
9.73469e-10
3.32752e-10
2.6308e-10
1.70991e-10
8.4463e-11
3.35076e-11
1.25245e-11
4.86097e-12
1.94603e-12
7.19475e-13
2.14549e-13
5.01499e-14
4.29517e-14
1.72513e-13
2.67216e-08
1.1607e-08
2.67442e-08
1.51189e-07
1.96867e-07
1.36351e-07
2.43234e-08
4.71499e-09
1.56398e-09
4.49597e-10
1.57836e-10
1.30625e-10
8.6882e-11
4.10092e-11
1.45696e-11
4.59481e-12
1.50855e-12
5.4177e-13
2.23008e-13
8.65008e-14
2.40184e-14
1.21068e-14
5.18899e-14
2.45442e-08
2.37856e-08
1.09969e-07
1.64105e-07
1.06797e-07
2.18633e-08
2.87784e-09
3.63795e-10
2.0878e-10
1.0259e-10
4.99037e-11
4.95273e-11
3.50871e-11
1.63404e-11
5.42986e-12
1.39495e-12
3.44397e-13
9.89857e-14
4.11239e-14
2.42145e-14
7.73586e-15
3.76345e-15
1.40403e-14
4.2554e-08
6.03319e-08
1.5293e-07
1.00711e-07
2.68745e-08
4.05611e-09
5.80057e-10
5.56366e-11
5.81561e-11
2.33923e-11
1.06017e-11
1.21754e-11
9.57879e-12
4.60121e-12
1.42703e-12
3.09021e-13
5.37181e-14
1.02272e-14
4.45691e-15
4.24134e-15
1.94951e-15
1.0449e-15
3.49618e-15
2.47819e-07
2.57756e-07
9.95926e-08
1.8863e-08
4.70216e-09
7.83492e-10
8.89986e-11
5.29793e-12
1.22481e-11
2.35048e-12
7.98098e-13
1.48478e-12
1.33839e-12
6.60579e-13
1.94194e-13
3.45229e-14
4.13146e-15
5.20358e-16
2.79468e-16
4.75889e-16
4.52084e-16
2.78145e-16
8.06351e-16
0.214655
0.448303
0.454095
0.453753
0.000512152
0.15098
0.409806
0.45227
0.0920341
0.0682154
0.0646433
0.0646872
0.785565
0.747432
0.732187
0.723181
0.989939
0.998903
0.998903
0.998367
0.998856
0.998903
0.998688
0.997775
0.98919
0.996938
0.994369
0.992863
0.895549
0.794741
0.687248
0.623818
0.186956
0.0810575
0.0272427
0.00561594
6.48358e-14
9.26173e-21
-8.21992e-10
-1.2364e-09
5.86461e-07
3.89357e-07
2.52646e-07
3.31953e-07
2.76105e-06
1.31397e-06
2.66515e-07
4.0012e-07
2.75185e-05
2.75979e-05
1.56354e-05
1.36097e-06
6.10861e-05
6.04845e-05
6.13901e-05
1.92321e-05
4.69622e-05
1.11031e-05
7.51364e-08
1.98176e-09
3.70423e-11
2.73199e-11
8.34097e-09
2.12831e-09
1.83947e-07
5.15739e-07
3.06182e-07
1.08686e-07
6.95474e-07
6.8919e-07
5.07535e-07
9.86371e-08
8.68369e-08
7.54838e-08
1.1795e-07
1.11615e-07
5.75508e-09
5.72785e-09
1.09995e-07
2.07597e-07
6.96897e-09
1.61466e-08
4.14894e-08
3.15468e-08
5.91616e-09
6.88576e-09
5.47207e-09
8.00749e-09
3.24947e-09
3.22851e-09
5.25199e-09
4.60799e-09
2.13666e-09
2.4138e-09
2.34954e-09
3.0822e-09
1.27402e-09
1.31487e-09
1.68608e-09
1.65909e-09
7.59128e-10
8.83645e-10
8.82452e-10
1.0693e-09
4.11599e-10
4.53784e-10
5.89489e-10
5.946e-10
2.30391e-10
2.90353e-10
3.1639e-10
3.88642e-10
1.33169e-10
1.60976e-10
2.14027e-10
2.34368e-10
8.2778e-11
1.11704e-10
1.33849e-10
1.69855e-10
5.2895e-11
7.03654e-11
9.97735e-11
1.16178e-10
3.46873e-11
5.24628e-11
6.55769e-11
8.85523e-11
2.20093e-11
3.13902e-11
4.67246e-11
5.66771e-11
1.37189e-11
2.02992e-11
2.77795e-11
3.96361e-11
6.7544e-12
1.00069e-11
1.62946e-11
2.12485e-11
3.60667e-12
5.37966e-12
8.0882e-12
1.26464e-11
1.42518e-12
2.30769e-12
4.11823e-12
5.66134e-12
6.06822e-13
9.50538e-13
1.52807e-12
2.56773e-12
1.68016e-13
3.04285e-13
5.63748e-13
8.29767e-13
5.03487e-14
8.96459e-14
1.5341e-13
2.93599e-13
1.28638e-14
2.43544e-14
4.72986e-14
8.40005e-14
3.14994e-15
6.22148e-15
1.26293e-14
2.11905e-14
0.438459
0.0915732
0.0265186
0.0165442
0.0153957
0.0162069
0.0148584
0.0146612
0.166333
0.391599
0.302299
0.150197
0.142958
0.268096
0.489611
0.731457
0.885979
0.979514
0.989156
0.406727
0.272989
0.13455
0.218484
0.443588
0.48059
0.400504
0.255556
0.576047
0.793338
0.657245
0.537062
0.754267
0.855824
0.936921
0.984477
0.985534
0.990867
0.990867
0.108869
0.227424
0.561012
0.894106
0.955833
0.959135
0.861435
0.527256
0.540315
0.939971
0.944159
0.943874
0.955465
0.959273
0.991572
0.987834
0.990867
0.990867
0.990867
0.790355
0.901139
0.953571
0.988971
0.992011
0.993951
0.939176
0.556466
0.357951
0.357897
0.423159
0.822648
0.96464
0.997278
0.993482
0.977447
0.976001
0.98724
0.988978
0.99498
0.99542
0.998989
0.998989
0.998989
0.998989
0.998842
0.955802
0.770406
0.594654
0.64592
0.828608
0.939547
0.997283
0.997281
0.958148
0.924795
0.981723
0.989865
0.998169
0.998989
0.998989
0.998989
0.998989
0.998989
0.998989
0.998989
0.998536
0.978432
0.960542
0.972721
0.982622
0.997281
0.997281
0.950661
0.60816
0.942555
0.989865
0.992556
0.988816
0.980118
0.965444
0.938022
0.897974
0.870526
0.862654
0.860061
0.858319
0.874544
0.884014
0.880177
0.858616
0.899648
0.902659
0.603608
0.885126
0.989865
0.542019
0.418835
0.363611
0.306267
0.237796
0.172602
0.138665
0.123317
0.11223
0.108607
0.111677
0.112868
0.10185
0.0737267
0.126571
0.365995
0.15641
0.508888
0.975582
5.17571e-17
7.6037e-17
4.85621e-17
5.61975e-16
4.3993e-18
7.90011e-18
3.37253e-25
3.05973e-25
3.0826e-25
2.90401e-24
-5.28729e-26
1.43475e-06
9.56934e-07
-3.68043e-09
1.9731e-19
-5.28161e-19
-5.07465e-19
0.0765112
0.411157
2.37729e-08
1.01882e-07
1.66332e-07
1.36394e-07
3.38064e-08
4.37046e-08
7.16871e-08
2.50691e-07
7.05615e-07
1.97992e-06
3.21911e-05
5.36991e-05
2.93362e-05
9.64706e-07
1.43459e-22
1.17221e-10
7.93084e-09
1.51488e-09
1.497e-09
3.87134e-07
4.55156e-07
5.16671e-07
5.54284e-07
2.507e-07
3.77201e-07
9.64956e-08
1.42539e-10
1.71776e-10
1.78021e-10
6.0371e-05
0.000145442
0.000159497
6.21415e-05
1.78138e-22
3.90287e-10
1.83673e-08
8.40504e-09
2.10819e-09
5.0399e-07
4.48382e-07
6.50846e-07
2.52468e-06
3.64377e-06
2.98193e-06
8.98609e-07
1.43788e-10
1.40711e-10
1.7357e-09
1.41942e-09
6.16238e-05
0.000214026
0.000208541
0.000164204
3.95183e-10
9.23117e-09
7.29792e-09
2.07654e-09
1.35477e-06
4.5666e-06
2.02967e-06
1.86706e-06
6.32518e-06
1.12453e-05
9.2901e-06
3.80526e-06
7.60455e-07
1.54463e-07
4.64437e-07
5.11701e-07
2.29679e-05
0.000217667
0.000216927
9.9146e-05
2.38238e-09
5.94654e-09
2.29098e-08
1.37708e-06
2.43068e-05
3.25909e-05
8.15743e-06
1.38631e-06
7.26981e-06
1.97797e-05
1.72132e-05
5.33512e-06
1.71761e-06
7.06708e-07
5.14325e-07
1.58209e-06
3.54469e-05
0.000245684
9.28777e-05
2.39223e-09
1.34881e-08
3.63594e-08
1.35689e-06
3.21191e-05
4.13413e-05
3.97503e-05
3.46457e-06
2.83633e-07
1.08957e-05
3.10386e-05
3.10138e-05
6.46267e-06
3.65807e-06
1.25832e-05
1.5501e-05
3.21144e-05
0.000244122
2.71552e-06
2.38087e-09
2.39376e-09
2.22598e-08
1.20996e-07
4.09655e-05
4.37227e-05
3.04133e-05
9.9484e-07
1.86035e-07
2.52344e-06
3.01319e-05
3.1037e-05
9.4725e-06
7.44373e-07
0.000129118
0.00024221
0.000255057
0.000124186
3.09463e-06
3.27798e-06
3.13477e-05
7.2629e-05
1.094e-06
1.87597e-05
1.82807e-05
9.29672e-06
1.08501e-06
1.9779e-06
1.23558e-05
2.76126e-05
2.31845e-05
1.91306e-06
7.47798e-07
0.000181992
0.000285371
0.00028635
0.00017431
3.11944e-06
2.86369e-05
0.00023322
0.000235994
1.46653e-06
1.54507e-06
1.11035e-05
2.15611e-05
2.24962e-05
2.26188e-05
2.28323e-05
1.40096e-05
1.81597e-06
7.50271e-07
7.49515e-07
3.53191e-05
0.000277954
0.000286466
0.00018484
3.14155e-06
8.26703e-05
0.000235975
0.000235994
3.83796e-06
5.74876e-06
4.91735e-06
6.44032e-06
7.23906e-06
4.72484e-06
1.78986e-06
1.35384e-06
3.06521e-06
3.61825e-06
1.78224e-06
2.57648e-08
8.93479e-05
0.000262655
7.76339e-05
3.30381e-06
2.06718e-05
0.000235996
0.000235995
1.49729e-08
2.31376e-08
1.46451e-08
1.47492e-08
1.48547e-08
1.25605e-07
8.48551e-07
1.35327e-06
1.10224e-06
4.2405e-07
1.50659e-07
2.60111e-08
2.29389e-08
2.17131e-05
5.18083e-07
4.39086e-06
6.20746e-05
0.000212195
0.000233888
1.47562e-08
1.2964e-08
1.45421e-08
1.67777e-08
3.86652e-08
2.4217e-07
4.1927e-07
3.33622e-07
2.24265e-07
1.61916e-07
8.74199e-08
3.14815e-08
2.29668e-08
2.29397e-08
1.16994e-07
3.25759e-06
0.000103008
2.03321e-05
4.18126e-05
9.33803e-09
9.9411e-09
1.07718e-08
1.98699e-08
6.49838e-08
1.32321e-07
2.64973e-07
2.75648e-07
2.18875e-07
1.20711e-07
4.98803e-08
3.23572e-08
2.93581e-08
3.66374e-08
7.82932e-08
7.87193e-08
3.69834e-05
1.91248e-05
5.56298e-05
5.76438e-09
6.40894e-09
7.23846e-09
1.22968e-08
2.90972e-08
6.95611e-08
1.30041e-07
1.41109e-07
9.04312e-08
4.18493e-08
2.21558e-08
1.84532e-08
2.15036e-08
4.60756e-08
3.96821e-08
1.617e-06
9.97656e-08
3.67895e-05
0.000168739
2.95314e-09
3.60867e-09
3.999e-09
4.60566e-09
4.86974e-09
7.28837e-09
1.13262e-08
1.12804e-08
1.14998e-08
1.07574e-08
8.70821e-09
1.27437e-08
1.18965e-08
1.7241e-08
3.97646e-08
1.64246e-06
-7.54571e-10
4.28113e-05
0.000168706
1.87701e-09
2.09954e-09
2.34112e-09
2.44078e-09
2.17409e-09
2.09455e-09
2.09459e-09
3.20747e-09
4.5283e-09
5.56179e-09
6.5915e-09
1.06846e-08
8.36471e-09
2.83861e-09
2.73533e-08
1.18807e-06
-6.45845e-21
4.36162e-06
0.000149142
1.07655e-09
1.27263e-09
1.44294e-09
1.58874e-09
1.77032e-09
2.10598e-09
2.70633e-09
3.41293e-09
4.24384e-09
5.04555e-09
5.74238e-09
7.18352e-09
1.06543e-08
2.60291e-09
1.06564e-09
6.20509e-10
1.38697e-10
5.6582e-10
5.23958e-06
6.85014e-10
8.24888e-10
9.70633e-10
1.14374e-09
1.36506e-09
1.6844e-09
2.19336e-09
2.87448e-09
3.69275e-09
4.51137e-09
5.40508e-09
6.70654e-09
6.70838e-09
9.89677e-08
6.94537e-07
1.13769e-06
3.8235e-07
7.79587e-08
7.89244e-08
4.14465e-10
5.45709e-10
6.79356e-10
8.4987e-10
1.07526e-09
1.3697e-09
1.80106e-09
2.39964e-09
3.1373e-09
3.97765e-09
5.00769e-09
7.085e-09
6.71001e-09
4.63873e-07
1.22025e-06
1.22003e-06
9.52412e-07
1.30583e-07
4.33468e-06
2.83955e-10
3.86782e-10
5.17209e-10
6.79327e-10
8.83189e-10
1.15256e-09
1.53141e-09
2.06771e-09
2.73728e-09
3.54398e-09
4.46447e-09
6.3564e-09
2.34103e-08
9.66874e-08
4.52386e-07
4.7182e-07
3.44872e-07
1.36045e-07
5.84374e-06
1.9657e-10
2.91805e-10
4.10807e-10
5.63691e-10
7.57239e-10
1.01229e-09
1.36458e-09
1.87822e-09
2.60237e-09
3.45313e-09
4.36159e-09
5.51762e-09
1.4931e-08
7.8385e-08
8.37738e-07
8.3194e-07
3.83217e-08
3.8186e-08
1.30118e-06
1.47919e-10
2.26272e-10
3.32859e-10
4.69018e-10
6.48996e-10
8.887e-10
1.23985e-09
1.77591e-09
2.62214e-09
3.82878e-09
5.10216e-09
5.80572e-09
1.08081e-08
8.47566e-08
3.38389e-06
7.18568e-06
2.1435e-06
3.81685e-08
1.05366e-07
1.10071e-10
1.73751e-10
2.6182e-10
3.7615e-10
5.31217e-10
7.467e-10
1.07319e-09
1.62033e-09
2.5978e-09
4.2978e-09
6.65996e-09
8.07367e-09
8.08365e-09
9.45994e-08
3.68616e-06
7.2598e-06
7.17729e-06
1.39599e-06
1.53135e-06
7.90874e-11
1.26369e-10
1.92153e-10
2.82828e-10
4.05848e-10
5.83307e-10
8.59476e-10
1.36109e-09
2.35005e-09
4.41405e-09
8.53669e-09
1.42862e-08
1.47727e-08
2.42359e-08
1.12401e-06
7.08812e-06
7.25349e-06
7.18256e-06
4.84352e-06
5.13941e-11
8.59054e-11
1.32275e-10
1.97559e-10
2.8821e-10
4.19287e-10
6.35617e-10
1.04494e-09
1.88687e-09
3.71783e-09
8.84631e-09
2.33957e-08
4.41556e-08
4.16949e-08
7.86933e-08
2.0138e-06
7.24888e-06
6.46487e-06
1.11616e-06
3.19831e-11
5.28274e-11
8.36223e-11
1.26585e-10
1.87506e-10
2.7906e-10
4.34384e-10
7.24006e-10
1.28619e-09
2.61951e-09
6.59891e-09
2.3826e-08
8.69593e-08
1.30236e-07
7.20807e-08
1.04608e-07
1.15145e-06
9.27544e-07
1.05055e-07
1.69385e-11
2.96066e-11
4.77658e-11
7.37678e-11
1.11215e-10
1.69746e-10
2.7218e-10
4.63642e-10
8.4378e-10
1.62806e-09
3.57871e-09
1.23098e-08
7.25429e-08
1.78409e-07
1.68044e-07
3.29269e-08
2.35325e-08
1.07064e-07
3.09563e-08
8.2847e-12
1.4803e-11
2.45699e-11
3.86822e-11
6.02162e-11
9.51499e-11
1.56674e-10
2.76726e-10
5.22163e-10
1.02739e-09
2.07089e-09
5.34284e-09
2.23219e-08
1.34016e-07
2.18507e-07
1.41531e-07
2.35329e-08
2.39187e-08
1.54538e-07
3.50647e-12
6.6106e-12
1.12622e-11
1.83553e-11
2.97712e-11
4.87479e-11
8.31367e-11
1.51913e-10
2.96607e-10
6.00266e-10
1.21644e-09
2.4741e-09
7.49523e-09
4.29295e-08
1.8781e-07
2.44206e-07
1.07172e-07
6.59567e-08
2.2442e-07
1.38066e-12
2.58e-12
4.55253e-12
7.792e-12
1.31599e-11
2.25624e-11
4.01316e-11
7.66555e-11
1.5628e-10
3.35975e-10
7.1332e-10
1.39729e-09
2.77389e-09
9.27095e-09
7.94976e-08
2.44384e-07
2.48041e-07
2.00811e-07
2.29529e-07
4.43849e-13
8.65802e-13
1.59541e-12
2.88788e-12
5.23313e-12
9.58926e-12
1.80274e-11
3.52419e-11
7.53319e-11
1.6931e-10
3.85249e-10
8.57191e-10
1.83592e-09
4.54102e-09
2.04982e-08
1.33183e-07
2.48041e-07
2.48041e-07
8.49422e-08
1.22831e-13
2.52231e-13
4.85211e-13
9.32834e-13
1.82793e-12
3.60108e-12
7.0565e-12
1.47057e-11
3.21156e-11
7.49998e-11
1.80996e-10
4.23846e-10
9.5682e-10
2.15621e-09
6.60778e-09
3.97471e-08
1.6993e-07
2.16058e-07
1.33711e-08
3.13613e-14
6.4186e-14
1.27907e-13
2.57276e-13
5.24011e-13
1.06195e-12
2.21639e-12
4.60342e-12
9.9655e-12
2.28767e-11
5.54189e-11
1.38015e-10
3.30383e-10
7.25884e-10
1.56779e-09
4.96504e-09
1.82842e-08
3.00569e-08
4.31068e-09
)
;

boundaryField
{
    leftWall
    {
        type            zeroGradient;
    }
    rightWall
    {
        type            zeroGradient;
    }
    lowerWall
    {
        type            zeroGradient;
    }
    atmosphere
    {
        type            inletOutlet;
        inletValue      uniform 0;
        value           nonuniform List<scalar> 
46
(
2.47819e-07
2.57756e-07
9.95926e-08
1.8863e-08
4.70216e-09
7.83492e-10
8.89986e-11
5.29793e-12
0
0
0
0
0
0
0
0
0
0
0
0
0
2.78145e-16
8.06351e-16
3.14994e-15
0
0
0
0
0
0
0
0
0
0
0
0
0
0
0
0
0
0
0
1.82842e-08
3.00569e-08
4.31068e-09
)
;
    }
    defaultFaces
    {
        type            empty;
    }
}


// ************************************************************************* //
