/*--------------------------------*- C++ -*----------------------------------*\
| =========                 |                                                 |
| \\      /  F ield         | OpenFOAM: The Open Source CFD Toolbox           |
|  \\    /   O peration     | Version:  2312                                  |
|   \\  /    A nd           | Website:  www.openfoam.com                      |
|    \\/     M anipulation  |                                                 |
\*---------------------------------------------------------------------------*/
FoamFile
{
    version     2.0;
    format      ascii;
    arch        "LSB;label=32;scalar=64";
    class       volScalarField;
    location    "3.35";
    object      p_rgh;
}
// * * * * * * * * * * * * * * * * * * * * * * * * * * * * * * * * * * * * * //

dimensions      [1 -1 -2 0 0 0 0];

internalField   nonuniform List<scalar> 
2268
(
6015.85
6028.32
6048.31
6072.24
6094.04
6108.25
6111.42
6102.04
6079.52
6043.94
5995.77
5935.22
5863.18
5782.41
5696.97
5611
5527.14
5449.16
5381.78
5329.53
5293.89
5271.69
5262.77
6006.85
6021.12
6044.41
6070.8
6094.54
6110.07
6113.93
6104.87
6082.41
6046.71
5998.45
5937.59
5864.78
5782.91
5696.42
5609.77
5525.07
5446.1
5377.82
5325.43
5290.55
5268.9
5260.42
5993.73
6010.68
6038.23
6068.7
6096.01
6113.99
6119.12
6110.68
6088.31
6052.39
6003.95
5942.42
5867.92
5783.64
5694.81
5606.95
5520.61
5439.71
5369.56
5316.98
5283.71
5263.25
5255.47
5975.13
5995.82
6029.3
6065.8
6098.61
6120.25
6127.08
6119.5
6097.37
6060.78
6012.07
5949.67
5872.6
5784.54
5692.05
5602.86
5514.08
5430.17
5356.85
5304.34
5273.95
5255.59
5248.47
5948.42
5974.79
6017.09
6062
6102.45
6129.03
6137.96
6131.31
6109.18
6071.85
6023.43
5960.18
5879.45
5785.76
5687.63
5597.52
5492.99
5396.03
5309.57
5249.83
5234.22
5232.23
5184.17
5690.54
5782.56
5915.56
6028.06
6105.13
6140.89
6150.97
6146.45
6125.35
6086.05
6030.21
5948.85
5767.51
5465.18
5078.49
4657.21
4108.02
3667.78
3208.07
2947.16
2858.59
2813.48
2933.7
2587.39
2798.34
3165.48
3608.03
4103.26
4393.5
4482.81
4524.74
4399.42
4143.21
3823.1
3391.81
2863.31
2338.05
1831.59
1622.74
1572.92
1414.35
1432.84
1461.15
1494.3
1541.92
1583.2
1334.35
1327.4
1318.82
1308.48
1295.37
1404.62
1412.2
1314.31
1325.26
1305.14
1283.94
1264.29
1257.8
1268.64
1315.33
1308.71
1302.31
1348.66
1354.34
1398.51
1370.01
1402.72
1465.18
3320.87
3419.46
3499.83
3510.8
3434.93
3277.33
3071.15
2878.43
2741.08
2672.61
2651.28
2658.14
2687.68
2721.66
2730.87
2704.06
2663.54
2629.81
2612.57
3315.38
3425.01
3516.58
3530
3457.58
3295.47
3072.03
2858.44
2692.44
2600.39
2580.88
2584.92
2609.78
2649.99
2660.58
2619.45
2566.33
2535.52
2524.75
2978.98
3235.34
3456.41
3500.36
3358.73
3040.22
2619.34
2161.92
1905.01
1834.36
1784.72
1800.85
1936.86
2071.21
2106.56
2038.46
1937.84
1838.11
1761.54
1739.23
2124.38
2513.89
2641.77
2555.07
2096.57
1422.53
1125.03
1038.3
995.471
1023.57
1047.02
1063.36
1129.43
1224.85
1254.55
1193.53
1066.37
1019.48
1065.99
1112.29
1270.38
1262.38
1144.54
1128.94
1107.6
1064.45
1000.28
994.15
1067.92
1129.76
1130.84
1095.48
1039.71
1015.37
1012.36
1015.6
1025.48
1063.6
1090.68
1086.36
1084.53
1097.05
1099.67
1130.58
1145.35
1062.04
1013.44
1052.34
1118.68
1130.01
1085.37
1023.56
1009.71
1013.63
1031.4
1039.61
1079.76
1118.93
1179.87
1197.3
1191.53
1177.35
1150.56
1182.14
1126.14
1008.42
1037.18
1039.78
1040.53
1006.69
1004.24
1009.89
1016.88
1047.9
1043.86
1099.6
1130.83
1174.76
1165.02
1139.15
1110.83
1092.18
1056.4
1171
1107.91
1055.97
1039.45
1043.58
1017.03
998.879
1006.88
1027.26
966.582
902.724
1331.22
1325.67
1318.9
1310.71
1300.35
1288.17
1279.25
1274.68
1271.88
1271.55
1271.21
1264.95
1266.87
1269.62
1283.82
1297.87
1359.64
1360.81
1350.68
1293.84
1277.92
1244.7
1189.5
1331.93
1327.35
1320.26
1311.09
1302.17
1295.58
1289.54
1284.13
1279.98
1278.61
1279.47
1280.38
1286.12
1294.14
1284.31
1292.46
1302.43
1279.57
1255.77
1238.02
1222.3
1204.52
1167.31
1310.86
1323.88
1322.85
1312.98
1304.36
1295.9
1293.66
1291.79
1283.29
1275.93
1277.21
1284.86
1310.62
1317.41
1297.88
1278.1
1295.47
1290.41
1206.19
1154.71
1134.59
1135.52
1134.61
1052.58
1115.85
1189.36
1221.5
1252.87
1262.64
1245.45
1244.4
1246.11
1237.16
1226.32
1271.5
1324.88
1329.98
1299.23
1242.77
1271.05
1132.42
946.239
845.481
818.69
828.984
832.532
870.142
887.115
946.834
999.376
987.491
968.268
941.303
984.159
1028.89
1063.09
1112.57
1194.94
1274.53
1265.11
1241.59
1240.99
1061.69
849.596
795.554
771.825
771.75
774.179
799.542
880.448
871.086
900.39
875.956
809.07
786.784
773.309
762.283
762.464
775.761
789.039
818.749
879.194
956.457
976.409
890.852
778.057
744.363
731.814
765.562
764.958
760.877
756.596
896.501
917.014
892.545
810.026
788.871
780.691
777.473
775.688
774.51
773.843
773.828
773.437
766.67
750.972
742.651
741.656
746.552
758.297
764.509
765.07
762.177
762.054
765.783
881.315
846.097
772.772
771.252
760.17
761.977
766.369
769.293
771.138
774.461
776.775
777.051
777.728
777.474
776.378
776.963
778.385
780.36
781.316
780.697
778.158
775.547
760.134
764.057
337.822
196.492
169.549
143.922
212.793
301.105
379.764
436.193
481.033
526.525
573.127
603.754
627.611
646.651
655.192
651.247
635.231
606.252
561.337
512.3
438.234
355.354
195.656
65.6486
21.5485
0.592212
0.501508
0.424639
0.842127
1.73269
2.64631
2.59146
2.63998
2.42499
6.0202
6.83198
5.06351
4.85939
7.65867
19.9502
52.7046
62.3486
104.236
126.429
104.635
8.5311
1.62197
-0.181534
-0.139104
-0.110532
-0.170705
-0.15646
-0.116344
-0.0599282
0.0687696
0.33057
0.371287
0.00261661
0.0645365
0.148007
0.190548
0.170851
2.57888
31.4171
45.019
12.4016
0.988831
1.32174
5.96503
1.48323
-0.0993484
-0.123619
-0.144478
-0.139257
-0.120374
-0.10455
-0.0931535
-0.0789507
-0.0633676
-0.04108
-0.00537883
0.0290935
0.0711917
0.0886226
0.0275404
-0.0853911
0.768425
-0.466492
-0.333694
-0.179396
0.204059
2.79978
0.351612
-0.0733982
-0.0914899
-0.100208
-0.0986
-0.0943903
-0.0896465
-0.0820757
-0.0737355
-0.066379
-0.0488895
-0.0279843
-0.00769588
0.00531421
0.0160012
-0.0222781
-0.137581
-0.301639
-0.344645
-0.288936
-0.21574
-0.12776
-0.107071
-0.0774965
-0.0559729
-0.0603175
-0.0680308
-0.0728367
-0.0696482
-0.0448946
-0.0416579
-0.0570078
-0.0544245
-0.0451334
-0.035423
-0.025589
-0.0216439
-0.0290769
-0.0512602
-0.107089
-0.182215
-0.209249
-0.189085
-0.100207
-0.000955816
-0.0643474
-0.0528062
-0.0473936
-0.0499501
-0.0514003
-0.0311418
-0.0257035
-0.0238406
-0.0221118
-0.0109235
-0.00964479
-0.0132989
-0.0311529
0.031683
0.0817693
0.0786766
0.0386575
-0.00799338
-0.084164
-0.0658976
-0.0124473
0.0338129
0.0927033
-0.0536855
-0.0484855
-0.0458434
-0.0457585
-0.0283873
-0.0245598
-0.0201323
0.00714201
0.101082
0.113667
0.111654
0.0975924
0.097417
0.107624
0.0954721
0.0905186
0.1297
0.112748
0.0849123
0.0537244
-0.0571134
-0.0736354
-0.0568322
-0.0487844
-0.0465365
-0.0449721
-0.0435235
-0.0384233
-0.0365956
-0.0280058
0.0148332
0.100161
0.0931321
0.0260602
-0.00731849
0.0113853
0.0243266
0.0515212
0.0324507
-0.0124638
-0.0564886
-0.0649222
-0.0676615
-0.0662725
-0.0615429
-0.0531946
-0.0450455
-0.0443203
-0.0434542
-0.0428532
-0.0419627
-0.0411035
-0.0379932
-0.0245786
-0.0277795
-0.0388043
-0.0457094
-0.0453514
-0.0439936
-0.0302062
-0.0312315
-0.0421788
-0.0485763
-0.0509922
-0.0529176
-0.053375
-0.0516994
-0.0480939
-0.041817
-0.0422719
-0.0420341
-0.0414076
-0.040884
-0.0403614
-0.0403189
-0.0391234
-0.0405847
-0.0412857
-0.0418186
-0.0420228
-0.0418381
-0.0408351
-0.0403532
-0.0414601
-0.0422144
-0.0430875
-0.0438359
-0.0440636
-0.0433015
-0.0412471
-0.038037
-0.0338053
-0.0397059
-0.0396197
-0.0390931
-0.0386146
-0.0381497
-0.0377483
-0.0375725
-0.0376392
-0.0379967
-0.0383462
-0.0384929
-0.0383984
-0.0380698
-0.0379375
-0.0377892
-0.0378465
-0.0378716
-0.0376869
-0.037037
-0.0356595
-0.03341
-0.0303313
-0.0265962
-0.0371967
-0.0371735
-0.0366929
-0.0362167
-0.0356574
-0.0351637
-0.0348758
-0.0348003
-0.0349554
-0.0351424
-0.0351825
-0.0350355
-0.0347409
-0.0344025
-0.0340463
-0.0336992
-0.0332336
-0.0325077
-0.0313733
-0.0296871
-0.0273667
-0.024424
-0.0209715
-0.034736
-0.0347499
-0.0342896
-0.0338296
-0.0332443
-0.0327115
-0.0323173
-0.0321251
-0.0320982
-0.0321065
-0.0320239
-0.0318046
-0.0314516
-0.0310043
-0.0305355
-0.0299544
-0.0291956
-0.0281731
-0.0267952
-0.02498
-0.0226789
-0.0198883
-0.0166854
-0.0322925
-0.0324174
-0.0319202
-0.0315058
-0.0309297
-0.0303804
-0.0299268
-0.0296191
-0.0294336
-0.029293
-0.0291122
-0.0288371
-0.0284505
-0.0279727
-0.0273987
-0.0266734
-0.0257497
-0.0245705
-0.0230814
-0.0212357
-0.0190036
-0.016382
-0.0134173
-0.0299247
-0.0301069
-0.0296834
-0.0292972
-0.0287515
-0.0282078
-0.0277109
-0.0273203
-0.027026
-0.0267805
-0.0265216
-0.0261979
-0.0257884
-0.0252823
-0.0246429
-0.0238329
-0.0228189
-0.0215659
-0.0200419
-0.0182199
-0.0160842
-0.0136316
-0.0108967
-0.0277087
-0.0279517
-0.0275975
-0.027227
-0.0267242
-0.0262129
-0.0257175
-0.0252738
-0.0249004
-0.0245735
-0.0242488
-0.0238797
-0.0234527
-0.0229185
-0.0222345
-0.0213752
-0.0203168
-0.0190388
-0.0175233
-0.0157555
-0.0137286
-0.0114425
-0.00892219
-0.0256941
-0.0259747
-0.0256917
-0.0253637
-0.0248985
-0.0244062
-0.0239273
-0.0234763
-0.0230469
-0.0226465
-0.0222591
-0.0218657
-0.0214117
-0.0208426
-0.0201255
-0.0192382
-0.0181639
-0.0168903
-0.0154084
-0.0137122
-0.0118006
-0.00967565
-0.0073571
-0.0238054
-0.0242052
-0.023996
-0.0237259
-0.023309
-0.0228362
-0.0223494
-0.0218859
-0.0214328
-0.0209688
-0.0205372
-0.0201077
-0.0196131
-0.0190096
-0.0182671
-0.0173659
-0.0162933
-0.0150422
-0.0136095
-0.0119949
-0.0102012
-0.0082321
-0.00610477
-0.0221245
-0.0226522
-0.0225342
-0.022331
-0.0219658
-0.0215131
-0.0210129
-0.0205076
-0.0200163
-0.0195276
-0.0190473
-0.018558
-0.0180143
-0.0173768
-0.0166152
-0.0157096
-0.0146504
-0.013434
-0.0120609
-0.0105342
-0.00885914
-0.0070415
-0.0050943
-0.0206391
-0.0213266
-0.0213136
-0.0211815
-0.0208614
-0.0204219
-0.0199003
-0.0193436
-0.0187922
-0.0182672
-0.0177251
-0.0171697
-0.0165762
-0.0159065
-0.0151305
-0.0142284
-0.0131917
-0.0120188
-0.0107126
-0.00927787
-0.00772143
-0.00604959
-0.00427608
-0.0194813
-0.0202213
-0.0203151
-0.0201996
-0.0197496
-0.0194161
-0.0189647
-0.0183469
-0.0177336
-0.0171304
-0.0165191
-0.0159023
-0.0152624
-0.0145648
-0.01378
-0.012889
-0.0118827
-0.0107604
-0.00952627
-0.00818615
-0.00674738
-0.00521743
-0.0036108
-0.0183972
-0.0193136
-0.0194828
-0.0193735
-0.01744
-0.0170253
-0.0176589
-0.0174535
-0.0167616
-0.0160713
-0.0153887
-0.0147181
-0.0140397
-0.0133218
-0.0125363
-0.011664
-0.0106956
-0.00963004
-0.00847201
-0.0072283
-0.00590597
-0.00451134
-0.00306782
-0.0175173
-0.0184473
-0.0186514
-0.017263
-0.016577
-0.0158261
-0.0159937
-0.0165911
-0.015815
-0.0150451
-0.0142966
-0.0135827
-0.0128775
-0.012151
-0.0113752
-0.0105307
-0.00960765
-0.00860458
-0.00752624
-0.00638002
-0.00517296
-0.00391558
-0.00261622
-0.0165883
-0.0173647
-0.0176143
-0.0162471
-0.0154807
-0.0146715
-0.0143829
-0.0153904
-0.014833
-0.014005
-0.0132058
-0.0124628
-0.0117469
-0.0110267
-0.0102738
-0.00946805
-0.00859871
-0.00766408
-0.0066689
-0.00562075
-0.00452698
-0.00340024
-0.00224268
-0.0155374
-0.0160039
-0.0166453
-0.015389
-0.0148281
-0.0131312
-0.00922444
-0.0106467
-0.0136237
-0.0128979
-0.0120763
-0.0113252
-0.0106189
-0.00992354
-0.00920936
-0.00845526
-0.00764968
-0.00679029
-0.00588198
-0.00493259
-0.00395001
-0.00295077
-0.00192871
-0.0142307
-0.0145998
-0.0153191
-0.0154836
-0.0150611
-0.0131396
-0.00791177
-0.00700946
-0.012144
-0.0116656
-0.0108652
-0.0101374
-0.00946665
-0.00881761
-0.00815964
-0.00747172
-0.00674132
-0.00596532
-0.00514852
-0.00429931
-0.00342584
-0.00255199
-0.0016596
-0.0129318
-0.0129513
-0.0137917
-0.0145158
-0.0144846
-0.0129561
-0.00634085
-0.00899815
-0.0110175
-0.0102932
-0.0095414
-0.0088766
-0.00827153
-0.0076911
-0.00710664
-0.00649881
-0.00585505
-0.0051714
-0.0044521
-0.00370642
-0.00294541
-0.00218618
-0.00142119
-0.0113929
-0.0111268
-0.0119791
-0.012474
-0.0124629
-0.0112563
-0.00687883
-0.00913449
-0.00942745
-0.00875181
-0.00810381
-0.00754143
-0.00703
-0.00653782
-0.00604108
-0.00552386
-0.00497562
-0.00439222
-0.00377684
-0.00313834
-0.00248944
-0.00184491
-0.00120302
-0.00963511
-0.00970456
-0.00987974
-0.0101077
-0.00967634
-0.00904475
-0.00871895
-0.00832995
-0.00766893
-0.00708899
-0.00659077
-0.00615754
-0.00575732
-0.00536534
-0.0049644
-0.00454303
-0.00409432
-0.00361546
-0.0031089
-0.0025817
-0.0020457
-0.00151724
-0.000994747
-0.0077261
-0.00770315
-0.00765825
-0.00735754
-0.00707544
-0.00691037
-0.00674089
-0.00628796
-0.00581212
-0.00540392
-0.0050648
-0.00476619
-0.00448004
-0.00419005
-0.00388531
-0.00355951
-0.00320999
-0.002836
-0.00243903
-0.00202505
-0.00160461
-0.00119184
-0.000788
-0.00584682
-0.00574214
-0.00522726
-0.00487192
-0.00480427
-0.00478926
-0.004563
-0.00427036
-0.00398687
-0.00376126
-0.00357608
-0.00340205
-0.00322186
-0.00302742
-0.00281334
-0.002579
-0.00232518
-0.00205275
-0.00176343
-0.00146258
-0.00115833
-0.000860728
-0.000573631
-0.00370033
-0.00371041
-0.0028655
-0.00276269
-0.00274133
-0.00265049
-0.00252592
-0.00240991
-0.00228615
-0.00220739
-0.00214757
-0.0020796
-0.00199322
-0.00188536
-0.00175552
-0.00160693
-0.00144271
-0.00126589
-0.00107988
-0.000890725
-0.000707334
-0.000537534
-0.000372482
-0.000338065
-0.000631388
-0.0012423
-0.00108542
-0.000846084
-0.000708251
-0.000639101
-0.000618407
-0.000658978
-0.000713088
-0.00076084
-0.000786555
-0.000785205
-0.000758259
-0.000709281
-0.000643021
-0.000563714
-0.000475739
-0.000384375
-0.000297917
-0.000223556
-0.000162975
-0.000115896
1147.47
1030.17
991.268
994.935
1147.28
1091.52
1004.01
991.412
1141.66
1138.49
1146.56
1147.43
854.645
822.719
834.7
832.195
772.444
762.092
760.015
755.471
753.03
763.575
767.127
778.121
758.686
766.84
825.073
832.136
734.941
723.14
651.292
602.872
296.532
212.989
166.446
132.279
75.115
20.9621
2.50129
2.48055
-0.0916759
-0.0526595
0.00287917
0.0326831
-0.0638594
-0.051742
-0.015898
0.0110268
-0.0360725
-0.00146792
0.0086001
0.0143185
0.0436341
0.0774393
0.0945881
0.0399229
0.0981914
0.0730023
0.0741378
0.0813736
-0.0346343
-0.0153395
-0.00765248
-0.0165807
-0.0448588
-0.0387492
-0.0327283
-0.0255916
-0.0346641
-0.029645
-0.0253926
-0.0233968
-0.0297107
-0.0269619
-0.0240294
-0.020981
-0.0232142
-0.020925
-0.018438
-0.0158895
-0.0179304
-0.0159027
-0.0138275
-0.0117301
-0.0139157
-0.0120842
-0.0102485
-0.00835236
-0.0109066
-0.00924085
-0.00754965
-0.00581772
-0.00862207
-0.00711184
-0.00557627
-0.00399418
-0.00686195
-0.00549565
-0.00410503
-0.00267708
-0.00548952
-0.00425296
-0.00300547
-0.00171983
-0.00441532
-0.00330341
-0.00217315
-0.00102154
-0.00357024
-0.00257131
-0.00155283
-0.000521516
-0.00290314
-0.00200544
-0.00109178
-0.000170928
-0.00237664
-0.00157175
-0.000753932
6.55956e-05
-0.00196054
-0.0012404
-0.000512539
0.000214261
-0.00163091
-0.000991786
-0.000346487
0.000294629
-0.00137029
-0.000806061
-0.000239161
0.000322896
-0.00116382
-0.000671066
-0.000176372
0.000311901
-0.000996612
-0.000570903
-0.000145766
0.000273496
-0.000857393
-0.000496695
-0.000136408
0.000217514
-0.000734083
-0.000435006
-0.000138175
0.000153701
-0.00061807
-0.000379376
-0.00014236
8.97766e-05
-0.000500966
-0.000320075
-0.000142027
3.26185e-05
-0.000377479
-0.000253724
-0.00013169
-1.31385e-05
-0.000253977
-0.000181323
-0.000112447
-4.74593e-05
-9.67174e-05
-8.92544e-05
-8.13016e-05
-7.35717e-05
1035.06
1093.94
1110.35
1096.76
1069.49
1057.65
1051.37
1042.36
1031.8
1065.79
1098.89
1057.53
1040.25
1007.15
942.617
882.134
875.847
860.925
840.591
1004.38
1042.05
1080.94
1044.69
963.059
941.807
942.899
906.045
813.086
943.091
977.012
977.676
874.274
828.567
763.827
793.098
819.929
814.519
819.782
1123.44
1049.89
960.28
850.658
837.636
832.443
784.436
763.971
787.46
760.939
777.71
783.465
808.265
760.907
764.03
817.504
797.241
782.847
778.55
796.161
770.867
767.262
804.04
804.239
776.732
714.375
747.681
836.016
837.358
840.35
747.343
731.002
717.835
757.032
914.369
941.906
801.413
773.808
749.624
732.138
722.672
716.212
710.008
707.202
709.242
699.27
653.04
719.844
695.063
689.003
685.494
703.7
713.196
832.829
941.737
842.03
768.657
766.232
738.197
716.215
706.658
700.585
697.036
695.296
697.201
704.574
689.01
680.602
690.869
703.75
703.313
704.729
687.673
779.824
812.536
759.375
823.314
748.468
704.127
681.921
662.125
645.455
637.614
638.782
643.843
640.974
642.675
647.845
657.478
638.483
641
658.78
745.746
824.345
756.938
527.707
424.988
303.526
244.419
201.03
175.816
169.419
169.337
161.422
158.039
157.931
153.353
145.44
124.522
134.184
303.533
457.303
704.942
754.44
85.388
31.2898
22.2547
13.2693
9.29246
7.67475
5.31317
4.44706
7.15202
5.32562
2.30835
0.709554
0.496691
0.4909
9.11117
42.5321
209.658
239.688
349.845
2.84221
0.170989
0.166381
0.170156
0.181479
0.194108
0.212278
0.23044
0.24373
0.284365
0.401942
0.514258
0.453454
0.397017
0.581124
13.8513
0.851655
3.78368
10.6675
0.065381
0.122798
0.147781
0.163026
0.199272
0.221025
0.212319
0.218787
0.358058
0.809598
0.987088
1.03446
0.766167
0.643727
0.310703
0.137706
0.0903466
0.0394595
0.0267357
0.0551745
0.109169
0.139551
0.153979
0.21589
0.249925
0.258851
0.284983
0.347587
0.448702
0.483301
0.551949
0.708185
0.733931
0.770238
0.466959
0.123015
0.0846038
0.0800279
0.0894522
0.151436
0.133878
0.134361
0.143397
0.175228
0.222416
0.264208
0.260679
0.198581
0.185783
0.200619
0.235576
0.516364
0.560767
0.554431
0.420473
0.147727
0.115599
0.154284
0.257027
0.23652
0.125217
0.120959
0.132975
0.149289
0.150124
0.145254
0.164818
0.177457
0.191401
0.198845
0.262644
0.515266
0.283334
0.281942
0.222018
0.133521
0.219581
0.228396
0.230789
0.19254
0.0990368
0.105783
0.127823
0.164512
0.169673
0.145433
0.175383
0.240599
0.237403
0.317927
0.536439
0.167164
0.160753
0.192727
0.155992
-0.00282617
0.169437
0.201281
0.119207
0.0818072
0.0940771
0.121229
0.175123
0.175169
0.136745
0.180931
0.406208
0.534297
0.565827
0.434703
0.176577
0.159751
0.306793
0.460312
0.00382696
0.078556
0.0986431
0.106684
0.110545
0.154362
0.177736
0.168206
0.149704
0.112211
0.153673
0.446759
0.594063
0.584225
0.49557
0.162349
0.288799
1.14532
1.14889
-0.0142923
0.0349901
0.127412
0.176609
0.156982
0.168933
0.16033
0.114774
0.104395
0.104181
0.108625
0.191441
0.58424
0.579994
0.41075
0.15942
0.511889
1.16059
1.17273
-0.00938692
0.00962487
0.0496827
0.0681201
0.0655836
0.060352
0.0693685
0.0792447
0.0846442
0.0891158
0.0892263
0.0899385
0.269303
0.505809
0.25619
0.232824
0.353896
1.17979
1.17878
-0.0119775
-0.00480765
0.00391987
0.014827
0.0268349
0.0387089
0.0500299
0.0585101
0.0643387
0.0684125
0.0717607
0.0721353
0.0707197
0.105347
0.157174
0.662499
0.798746
0.712413
0.650485
-0.0081919
-0.00204445
0.00538755
0.014006
0.0232864
0.0326499
0.0411603
0.048153
0.0536009
0.0575582
0.0600821
0.0608557
0.0597661
0.0575488
0.102946
0.701587
0.757505
0.121902
0.157365
-0.00510144
0.000296203
0.00659953
0.0136874
0.0212905
0.0288278
0.0358376
0.0416691
0.0461577
0.0492505
0.0510693
0.0515672
0.0505161
0.0476051
0.0410433
0.178782
0.370909
0.143395
0.328955
-0.00283144
0.00195643
0.00736749
0.0132853
0.0194922
0.0256266
0.0313025
0.036112
0.0398196
0.0424115
0.0439045
0.0442925
0.0435928
0.0407915
0.0347256
0.0367991
0.0264245
0.213092
0.698451
-0.00127695
0.00297064
0.00764486
0.0126347
0.0177681
0.0227807
0.0273966
0.0313718
0.0345441
0.036818
0.0381351
0.0385714
0.0381742
0.0363449
0.0324215
0.0289198
0.0257127
0.213942
0.712327
-0.000223412
0.00353656
0.0075892
0.0118376
0.0161496
0.0203294
0.0241748
0.0275065
0.0301877
0.0321311
0.0333399
0.0337637
0.033486
0.0324453
0.0297234
0.0284532
0.021744
0.0410691
0.56964
0.000482643
0.00380789
0.00733156
0.010973
0.0146277
0.01815
0.0213886
0.0242028
0.0264866
0.0281692
0.0292424
0.0297052
0.0295347
0.0287239
0.0275549
0.0246961
0.0209792
0.0191929
0.0273566
0.000945579
0.00388365
0.00695371
0.0100898
0.0132085
0.0162002
0.0189481
0.0213454
0.0233079
0.0247779
0.0257298
0.0261875
0.0261256
0.0257077
0.0270724
0.0259702
0.0224866
0.0216099
0.0234098
0.00123183
0.00382664
0.00650597
0.00921688
0.0118928
0.0144494
0.0167971
0.0188535
0.0205521
0.0218471
0.0227158
0.0231694
0.0232213
0.023781
0.0260821
0.0278915
0.0254204
0.0227376
0.0376942
0.00138858
0.003679
0.00601959
0.00836923
0.0106745
0.0128703
0.014887
0.0166612
0.0181411
0.0192906
0.0200918
0.0205511
0.0207453
0.02078
0.0212726
0.0271464
0.0313706
0.025722
0.0441047
0.00144925
0.00346848
0.00551334
0.00755331
0.00954527
0.0114381
0.013178
0.0147158
0.0160117
0.0170386
0.0177849
0.0182572
0.0185015
0.0187018
0.0202722
0.0226618
0.0296065
0.0305808
0.0314937
0.00143769
0.00321375
0.00499881
0.00677075
0.00849475
0.0101306
0.0116365
0.0129739
0.0141123
0.0150324
0.0157293
0.0162138
0.0165262
0.0168302
0.0239959
0.0322974
0.0279122
0.0288644
0.0261051
0.00137172
0.0029282
0.00448294
0.00602035
0.00751275
0.00892842
0.0102341
0.0113994
0.0124006
0.0132252
0.0138729
0.0143531
0.0146869
0.0150794
0.0231135
0.0311815
0.031802
0.0261746
0.0236316
0.00126513
0.00262163
0.00397016
0.00530026
0.00659013
0.00781449
0.00894663
0.0099619
0.0108418
0.0115782
0.0121754
0.0126454
0.0129897
0.0132474
0.0158676
0.0295427
0.0302913
0.0310439
0.0256516
0.00112936
0.00230214
0.00346409
0.00460877
0.00571917
0.00677495
0.0077543
0.00863695
0.00940782
0.0100608
0.0106043
0.0110646
0.0114502
0.0117017
0.0119549
0.0165712
0.0289585
0.0274234
0.0151412
0.000974277
0.00197685
0.00296815
0.00394482
0.00489373
0.00579846
0.00664099
0.00740436
0.00807572
0.00865002
0.00913434
0.0095653
0.0100369
0.0104043
0.0104654
0.0106797
0.0133095
0.013031
0.0112561
0.000808772
0.00165224
0.00248559
0.00330779
0.00410888
0.00487562
0.00559311
0.00624707
0.00682653
0.00732639
0.00775029
0.00812148
0.00856511
0.00908187
0.00926994
0.00911481
0.00924425
0.00964631
0.00959584
0.000640752
0.00133395
0.00201918
0.00269711
0.0033603
0.00399823
0.00459871
0.00514992
0.00564261
0.00607205
0.00643963
0.0067567
0.00706463
0.00758317
0.00800883
0.00799575
0.00785444
0.0079903
0.00839888
0.00047711
0.0010269
0.00157121
0.00211192
0.00264371
0.00315844
0.00364656
0.00409874
0.00450757
0.00486881
0.00518257
0.00545416
0.00570035
0.00600207
0.00657312
0.00688723
0.00666626
0.00664992
0.00708776
0.000323438
0.00073485
0.00114276
0.00154999
0.00195321
0.00234684
0.00272413
0.00307843
0.00340428
0.00369826
0.00395965
0.00419053
0.00439628
0.00459503
0.00494981
0.00552822
0.00563892
0.00555991
0.00563932
0.000183656
0.000459305
0.000731759
0.00100527
0.00127928
0.00155117
0.00181713
0.00207308
0.00231563
0.0025425
0.00275264
0.00294576
0.00312172
0.00328193
0.00345522
0.00386812
0.00424307
0.00426017
0.00379987
5.7295e-05
0.000196911
0.000332485
0.000471294
0.000615601
0.000765442
0.000919434
0.00107588
0.00123346
0.00139146
0.00154927
0.0017051
0.00185411
0.00198864
0.00210466
0.0022604
0.00263585
0.00275366
0.00218486
-6.15062e-05
-5.65583e-05
-5.67054e-05
-5.34773e-05
-4.19085e-05
-1.89649e-05
1.67895e-05
6.60525e-05
0.000129697
0.000209078
0.000305523
0.000418167
0.000540866
0.000658741
0.000747852
0.00077829
0.000745184
0.000716772
0.000665646
)
;

boundaryField
{
    leftWall
    {
        type            fixedFluxPressure;
        gradient        uniform 0;
        value           nonuniform List<scalar> 
50
(
6015.85
6006.85
5993.73
5975.13
5948.42
5690.54
2587.39
1334.35
1331.22
1331.93
1310.86
1052.58
870.142
880.448
896.501
881.315
764.057
195.656
8.5311
5.96503
2.79978
-0.107071
-0.0643474
-0.0536855
-0.0487844
-0.0450455
-0.0422719
-0.0397059
-0.0371967
-0.034736
-0.0322925
-0.0299247
-0.0277087
-0.0256941
-0.0238054
-0.0221245
-0.0206391
-0.0194813
-0.0183972
-0.0175173
-0.0165883
-0.0155374
-0.0142307
-0.0129318
-0.0113929
-0.00963511
-0.0077261
-0.00584682
-0.00370033
-0.000338065
)
;
    }
    rightWall
    {
        type            fixedFluxPressure;
        gradient        uniform 0;
        value           nonuniform List<scalar> 
50
(
2612.57
2524.75
1761.54
1019.48
1025.48
1039.61
1043.86
902.724
840.591
819.782
778.55
773.808
768.657
759.375
756.938
754.44
349.845
10.6675
0.0267357
0.0800279
0.115599
0.133521
0.155992
0.460312
1.14889
1.17273
1.17878
0.650485
0.157365
0.328955
0.698451
0.712327
0.56964
0.0273566
0.0234098
0.0376942
0.0441047
0.0314937
0.0261051
0.0236316
0.0256516
0.0151412
0.0112561
0.00959584
0.00839888
0.00708776
0.00563932
0.00379987
0.00218486
0.000665646
)
;
    }
    lowerWall
    {
        type            fixedFluxPressure;
        gradient        uniform 0;
        value           nonuniform List<scalar> 
62
(
6015.85
6028.32
6048.31
6072.24
6094.04
6108.25
6111.42
6102.04
6079.52
6043.94
5995.77
5935.22
5863.18
5782.41
5696.97
5611
5527.14
5449.16
5381.78
5329.53
5293.89
5271.69
5262.77
5262.77
5260.42
5255.47
5248.47
5184.17
2933.7
1583.2
1465.18
1147.47
1030.17
991.268
994.935
3320.87
3315.38
2978.98
1739.23
1065.99
1063.6
1079.76
1099.6
3320.87
3419.46
3499.83
3510.8
3434.93
3277.33
3071.15
2878.43
2741.08
2672.61
2651.28
2658.14
2687.68
2721.66
2730.87
2704.06
2663.54
2629.81
2612.57
)
;
    }
    atmosphere
    {
        type            totalPressure;
        rho             rho;
        psi             none;
        gamma           1;
        p0              uniform 0;
        value           nonuniform List<scalar> 
46
(
0
0
0
0
0
0
0
0
-7.13654e-06
-6.39735e-05
-0.000132447
-0.000185764
-0.00021532
-0.000222632
-0.000211777
-0.000186729
-0.000150731
-0.000106873
-5.99357e-05
-1.89683e-05
-3.16413e-07
0
0
0
-5.29293e-09
-3.88329e-06
-1.85944e-05
-5.15247e-05
-0.000123675
-0.000209714
-0.000292145
-0.000361342
-0.000413315
-0.000447014
-0.000462485
-0.000459712
-0.000437759
-0.00039454
-0.000327969
-0.000239461
-0.000138633
-4.74224e-05
-6.63608e-07
0
0
0
)
;
    }
    defaultFaces
    {
        type            empty;
    }
}


// ************************************************************************* //
