/*--------------------------------*- C++ -*----------------------------------*\
| =========                 |                                                 |
| \\      /  F ield         | OpenFOAM: The Open Source CFD Toolbox           |
|  \\    /   O peration     | Version:  2312                                  |
|   \\  /    A nd           | Website:  www.openfoam.com                      |
|    \\/     M anipulation  |                                                 |
\*---------------------------------------------------------------------------*/
FoamFile
{
    version     2.0;
    format      ascii;
    arch        "LSB;label=32;scalar=64";
    class       volScalarField;
    location    "4.4";
    object      alpha.galistan;
}
// * * * * * * * * * * * * * * * * * * * * * * * * * * * * * * * * * * * * * //

dimensions      [0 0 0 0 0 0 0];

internalField   nonuniform List<scalar> 
2268
(
1
1
1
1
1
1
1
1
1
1
1
1
1
1
1
1
1
1
1
0.999995
0.999958
0.999954
0.999954
1
1
1
1
1
1
1
1
1
1
1
1
1
1
1
1
1
1
1
1
0.999994
0.999977
0.999982
1
1
1
1
1
1
1
1
1
1
1
1
1
1
1
1
0.999999
0.999999
0.999999
1
1
1
1
1
1
1
1
1
1
1
1
1
1
1
1
1
1
1
1
1
1
1
1
1
1
0.99922
1
0.999998
0.999997
0.999999
1
1
1
0.999999
0.999998
1
1
1
1
1
1
0.999929
0.996727
0.990528
0.98307
0.978645
0.980231
0.972291
0.976071
0.966708
0.975239
0.986822
0.995545
0.999365
0.999931
0.999932
0.999816
0.999434
0.999326
0.997025
0.966064
0.920735
0.860648
0.781667
0.691567
0.610642
0.536755
0.478804
0.433864
0.395069
0.373445
0.330261
0.303259
0.340858
0.409575
0.493216
0.581109
0.639243
0.656044
0.646696
0.612917
0.544
0.444315
0.346937
0.248373
0.153443
0.0917396
0.0489562
0.0220004
0.0085266
0.0027164
0.000443706
0.000429762
0.00534263
0.0293462
7.52049e-15
4.7319e-26
-1.53703e-10
6.54484e-23
-1.0482e-06
0.0172703
0.0338363
0.0359028
0.0206684
0.00535183
0.000509947
6.00243e-05
0.000134649
0.000173266
-9.07236e-20
4.67575e-20
-4.58884e-20
-1.38619e-09
-6.89188e-08
3.58994e-15
-1.70163e-11
5.4485e-08
0.000920349
0.959243
0.959545
0.958721
0.958182
0.956694
0.957346
0.957756
0.958248
0.958856
0.959093
0.95913
0.96077
0.96442
0.964753
0.964754
0.964755
0.963706
0.961957
0.961737
0.942393
0.962905
0.963027
0.962959
0.963035
0.962949
0.94787
0.921638
0.916833
0.925039
0.928758
0.917786
0.913377
0.917718
0.926538
0.936734
0.940382
0.944492
0.958108
0.760257
0.821236
0.821905
0.771415
0.74631
0.713726
0.64873
0.57111
0.493096
0.475345
0.462902
0.446712
0.457732
0.472739
0.491965
0.523383
0.552915
0.571104
0.582231
0.503117
0.388516
0.3052
0.270734
0.22769
0.162461
0.102698
0.0580914
0.0477033
0.0245775
0.00230954
0.00137725
0.0225151
0.0249648
0.0165178
0.0375825
0.0630733
0.0782235
0.0896058
0.0374528
0.00139493
0.000247938
0.00664338
0.0123538
0.0229775
0.0296052
0.0316821
0.0115534
0.000496252
1.398e-05
1.39839e-05
1.39823e-05
6.84088e-05
0.0013794
0.00052969
0.00053958
0.000633768
0.000278521
0.000250393
0.000250921
0.00024795
0.000247528
0.000254568
0.00359242
0.00437574
0.00603853
0.0133328
0.00846968
0.000127663
0.000191768
0.000396485
0.000698213
0.00527699
0.00472079
0.00469161
0.00363337
0.000565928
0.000890241
0.00121544
0.00024797
0.00067028
0.000431594
6.96468e-05
8.01114e-05
0.0015807
0.0125306
0.009013
0.000505696
0.000872666
0.000927422
0.000922944
0.0134429
0.0136099
0.0109504
0.00433671
0.001808
0.00128064
0.00155773
0.000620561
0.00154406
0.000681673
7.03043e-05
0.000176717
0.00313247
0.00948053
0.00427337
0.00205093
0.00302025
0.00178993
0.00122123
0.0135737
0.0135924
0.00543367
0.00498552
0.00190506
1.37581e-07
4.26775e-08
2.02964e-10
1.42582e-10
5.29245e-07
8.08657e-07
9.45843e-06
4.57856e-05
5.45609e-05
4.97272e-05
3.80843e-05
6.01243e-05
6.99101e-05
4.91432e-05
3.64379e-06
4.69483e-20
0.000421912
0.000792316
0.000696196
0.000718855
0.00075526
0.000420479
0.00041489
7.34912e-05
1.76151e-06
2.26632e-10
1.32874e-07
0.000101809
0.000166668
0.000102484
0.00011888
0.000130771
8.66973e-05
7.0694e-05
3.9988e-05
3.64743e-06
3.35271e-06
3.08767e-06
1.70354e-06
0.000678521
0.00241151
0.00192253
0.00110001
0.00103932
0.003137
0.00424
0.000575023
0.000300434
0.000307076
0.00102858
0.00193568
0.00212768
0.00173313
0.000955687
0.000213957
4.21138e-05
4.21611e-05
6.45471e-05
0.00019308
0.000108821
0.000359132
0.00141085
0.00209705
0.00415229
0.00564355
0.0056404
0.00580033
0.0058228
0.00582068
0.000584633
0.000545041
0.00102896
0.00245416
0.00245082
0.00236359
0.00210007
0.000572492
5.79813e-05
6.96942e-05
0.000735285
0.00105471
0.0010423
0.000557992
0.00145232
0.00218947
0.00220572
0.00223005
0.00215337
0.00207832
0.00222446
0.00217039
0.00182772
0.000481711
0.00020751
0.000871646
0.00140787
0.00143515
0.00073539
7.59998e-05
7.50018e-05
0.000166696
0.000376293
0.000373723
0.000260483
0.000191777
0.000217813
0.00103567
0.00125795
0.00040686
0.000171898
8.33095e-05
6.76443e-05
6.80245e-05
7.9857e-05
0.000341413
0.000177535
0.000177535
0.000177536
0.000177535
0.000182707
0.000214919
0.000118971
0.000121843
0.000118388
4.97558e-05
3.50706e-05
3.22461e-05
2.2406e-05
2.28176e-05
3.68671e-05
6.78567e-05
0.000135179
7.31668e-05
7.92999e-05
7.96001e-05
6.88376e-05
6.96198e-05
6.95876e-05
0.000177538
0.000195722
0.000480918
0.000456208
0.000307788
0.000287614
0.000482072
0.000533046
0.000532227
0.00021166
2.16741e-05
5.59825e-05
0.000164483
0.000196802
7.38297e-05
4.1572e-05
3.37392e-05
2.50636e-06
3.30389e-06
4.93234e-05
0.000107577
0.000148082
0.000117471
0.000498475
0.000503189
0.000485595
0.000298364
5.38864e-05
-9.04586e-22
1.08116e-15
-8.84154e-19
8.61572e-19
-3.07491e-08
6.67497e-05
0.00073972
0.000972296
0.000971664
0.000969105
0.000857491
0.000386549
1.25847e-05
5.59644e-08
6.02499e-08
1.95713e-05
0.000159482
0.000181163
0.000543012
0.000466365
0.000147275
8.30462e-06
6.03102e-09
3.86661e-10
2.93251e-08
2.13013e-07
1.82336e-06
4.54624e-06
9.58329e-06
2.65328e-05
0.000258653
0.000693857
0.00097133
0.000971783
0.000551174
7.01317e-08
5.59424e-08
5.6615e-08
6.62337e-06
0.000140759
0.00017796
0.000425456
9.81215e-05
3.57428e-10
3.71275e-10
1.0199e-09
4.25826e-09
5.32595e-09
3.37729e-08
9.47599e-08
5.50568e-08
7.16946e-09
-7.14028e-10
3.025e-10
6.91609e-06
9.52913e-05
0.000218459
0.000233754
0.000117741
5.99568e-08
2.25175e-06
3.93672e-06
3.03239e-05
4.6756e-05
7.45708e-06
3.95517e-10
3.80741e-10
1.34e-09
3.34238e-09
2.22228e-08
2.88625e-08
4.83042e-08
8.3799e-08
2.07476e-07
1.97991e-07
5.4674e-08
1.91613e-08
-2.47459e-09
-3.06164e-18
-5.58713e-10
-2.3191e-14
2.19351e-05
2.17639e-05
2.21474e-05
1.86236e-05
9.17404e-06
4.07868e-06
6.53295e-10
6.38203e-10
1.60054e-09
2.01991e-09
1.83127e-08
1.59304e-07
1.06286e-07
1.9339e-07
1.9393e-07
1.85388e-07
9.66164e-08
1.57964e-07
7.08762e-08
2.07147e-07
2.14463e-07
3.20107e-07
1.72179e-07
1.05093e-07
1.29839e-07
7.68363e-07
2.98449e-06
2.22995e-06
6.37072e-07
7.06605e-10
1.72047e-09
2.23495e-09
2.07612e-09
8.39012e-08
1.66713e-07
1.16502e-07
4.73586e-08
6.00544e-08
5.39165e-08
1.26736e-08
2.0919e-07
7.66355e-07
1.00276e-06
8.88077e-07
3.38098e-07
1.02639e-07
1.03876e-07
1.32549e-07
3.1895e-07
8.21838e-07
7.741e-07
2.53211e-07
1.23954e-09
2.48992e-09
6.69656e-09
1.71753e-08
5.36551e-08
6.96768e-08
2.38068e-08
1.9153e-08
3.91456e-08
1.38741e-08
1.16238e-08
5.89161e-07
1.00276e-06
1.00276e-06
6.26532e-07
8.72899e-08
8.3051e-08
2.68407e-07
1.54402e-06
1.58175e-06
1.48871e-06
1.88896e-07
6.61373e-09
1.34993e-09
2.50779e-09
6.37764e-09
8.23763e-09
1.32536e-08
1.14667e-08
5.17803e-09
1.28222e-08
1.23676e-08
4.50297e-09
1.07572e-08
2.39633e-07
4.90336e-07
3.69486e-07
1.10818e-07
8.08694e-08
7.07684e-07
1.59734e-06
1.60191e-06
1.47973e-06
6.45116e-07
1.70503e-08
3.15643e-08
1.24471e-09
2.03009e-09
3.74378e-09
2.58801e-09
2.018e-09
3.10627e-09
5.13953e-09
2.82351e-09
2.77785e-09
4.47697e-09
1.79668e-08
5.26015e-09
1.14417e-08
1.83022e-09
1.91976e-09
7.73857e-08
5.32323e-07
1.5841e-06
1.60193e-06
5.25137e-07
2.08495e-08
1.66981e-08
2.34365e-07
1.07731e-09
1.43002e-09
2.0567e-09
1.71412e-09
1.71606e-09
2.11767e-09
2.22706e-09
1.93187e-09
3.53856e-09
4.95131e-09
3.29932e-09
5.94706e-10
5.73778e-10
1.79032e-09
4.66482e-09
4.04415e-08
8.05852e-08
1.19289e-07
5.31797e-07
8.01022e-07
3.83758e-07
4.28061e-08
1.56615e-07
8.89065e-10
9.95612e-10
1.35228e-09
1.33467e-09
1.53888e-09
1.74275e-09
1.57688e-09
2.23007e-09
3.22278e-09
2.87612e-09
8.411e-10
4.88049e-10
5.73321e-10
9.68233e-10
1.75548e-09
3.35134e-09
4.47443e-09
2.21339e-09
3.1135e-08
7.73113e-07
7.87904e-07
1.63994e-07
7.03103e-08
8.3253e-10
7.29011e-10
9.68723e-10
1.07061e-09
1.29749e-09
1.36329e-09
1.26965e-09
1.4244e-09
1.45823e-09
1.09825e-09
5.81385e-10
4.69221e-10
5.25172e-10
6.59616e-10
7.04155e-10
5.9678e-10
7.20629e-10
5.8888e-10
1.2079e-09
8.81242e-08
5.55436e-07
4.36503e-07
7.15015e-08
7.59438e-10
5.20411e-10
6.82259e-10
7.70365e-10
8.91549e-10
8.82298e-10
7.93694e-10
7.00227e-10
5.97194e-10
4.80752e-10
3.73458e-10
3.26388e-10
3.06956e-10
3.25105e-10
3.63761e-10
4.0196e-10
4.7188e-10
5.79909e-10
7.26522e-10
4.67985e-09
3.6565e-08
3.27102e-07
1.16235e-07
7.20173e-10
3.64146e-10
4.49966e-10
4.81869e-10
4.92323e-10
4.49516e-10
3.79294e-10
3.1122e-10
2.64497e-10
2.26888e-10
1.98683e-10
1.71129e-10
1.60217e-10
1.64551e-10
1.8217e-10
2.19055e-10
2.93084e-10
4.48411e-10
7.00953e-10
1.0453e-09
1.76655e-09
1.17143e-08
6.76923e-08
6.63618e-10
2.42213e-10
2.64281e-10
2.5312e-10
2.24724e-10
1.8405e-10
1.43688e-10
1.15071e-10
9.32726e-11
7.93786e-11
7.26453e-11
6.37278e-11
5.84495e-11
5.88871e-11
6.46643e-11
7.64056e-11
1.00582e-10
1.52918e-10
2.55644e-10
4.27715e-10
6.65732e-10
1.00532e-09
2.2535e-08
6.36264e-10
1.67561e-10
1.48414e-10
1.25831e-10
1.02406e-10
8.11199e-11
6.25716e-11
4.66296e-11
3.38722e-11
2.58382e-11
2.13251e-11
1.85524e-11
1.69872e-11
1.7362e-11
1.92382e-11
2.2853e-11
2.93877e-11
4.21002e-11
6.79912e-11
1.14436e-10
2.03859e-10
2.59935e-10
4.50437e-09
6.03673e-10
1.1057e-10
8.73395e-11
7.58282e-11
7.02271e-11
6.42278e-11
5.30953e-11
3.87751e-11
2.35338e-11
1.36073e-11
8.07873e-12
5.52789e-12
4.54891e-12
4.52186e-12
5.2261e-12
6.60664e-12
8.82637e-12
1.24687e-11
1.93117e-11
3.15442e-11
5.08465e-11
9.44631e-11
5.71013e-10
5.86216e-10
8.26146e-11
6.34917e-11
7.00571e-11
8.55559e-11
8.77628e-11
7.56499e-11
5.58926e-11
3.28769e-11
1.67142e-11
7.81784e-12
3.50309e-12
1.7952e-12
1.29611e-12
1.39416e-12
1.86242e-12
2.67016e-12
3.96593e-12
6.02878e-12
9.3357e-12
1.5071e-11
2.114e-11
6.63302e-11
5.68074e-10
6.54287e-11
6.21468e-11
9.66115e-11
1.29392e-10
1.39386e-10
1.17737e-10
8.51645e-11
4.90638e-11
2.49687e-11
1.13684e-11
4.60359e-12
1.75763e-12
7.19389e-13
4.55532e-13
5.27953e-13
7.90965e-13
1.26356e-12
2.01257e-12
3.16418e-12
4.75344e-12
8.32411e-12
1.30946e-11
5.637e-10
6.40405e-11
8.36718e-11
1.47699e-10
2.06389e-10
2.32886e-10
1.8944e-10
1.2047e-10
6.76203e-11
3.51383e-11
1.63515e-11
6.74825e-12
2.51865e-12
8.58571e-13
2.97611e-13
1.78974e-13
2.33835e-13
3.90456e-13
6.53087e-13
1.05824e-12
1.71221e-12
2.46084e-12
4.39477e-12
5.636e-10
6.9436e-11
1.26368e-10
2.21604e-10
3.42087e-10
3.90512e-10
2.92256e-10
1.57511e-10
8.32942e-11
4.47393e-11
2.15241e-11
9.28136e-12
3.56737e-12
1.24516e-12
3.75137e-13
1.16124e-13
7.60641e-14
1.15945e-13
2.10891e-13
3.68602e-13
6.03743e-13
1.1264e-12
1.62209e-12
5.71456e-10
9.383e-11
1.97074e-10
4.2617e-10
6.37309e-10
6.76845e-10
3.72945e-10
1.9103e-10
9.3685e-11
5.11838e-11
2.55817e-11
1.13764e-11
4.6376e-12
1.71794e-12
5.35328e-13
1.43915e-13
4.33253e-14
3.58497e-14
6.43817e-14
1.17676e-13
2.31974e-13
3.4806e-13
6.84531e-13
5.79674e-10
1.20214e-10
3.34016e-10
8.39112e-10
1.1182e-09
1.0555e-09
5.75835e-10
2.16575e-10
9.61458e-11
5.29525e-11
2.74511e-11
1.2573e-11
5.40715e-12
2.12699e-12
7.14417e-13
2.06383e-13
4.92568e-14
1.63453e-14
2.07324e-14
4.09133e-14
7.52273e-14
1.78247e-13
2.76056e-13
6.13376e-10
1.62818e-10
5.56688e-10
1.17262e-09
1.39857e-09
1.22116e-09
7.44869e-10
2.64316e-10
9.28191e-11
4.96851e-11
2.64722e-11
1.24088e-11
5.60428e-12
2.32237e-12
8.70317e-13
2.73022e-13
6.88367e-14
1.46096e-14
8.06494e-15
1.48293e-14
3.66959e-14
6.96326e-14
1.5062e-13
6.40023e-10
2.03216e-10
7.44884e-10
1.33276e-09
1.45392e-09
1.27588e-09
7.99545e-10
2.70142e-10
9.73165e-11
4.54391e-11
2.33782e-11
1.09944e-11
5.131e-12
2.26984e-12
9.14708e-13
3.184e-13
9.01489e-14
1.98481e-14
4.73607e-15
5.97325e-15
1.36533e-14
4.42814e-14
8.17018e-14
7.21359e-10
2.72105e-10
8.79554e-10
1.38795e-09
1.46807e-09
1.30471e-09
7.1157e-10
2.87444e-10
1.02825e-10
4.09376e-11
1.89849e-11
8.80814e-12
4.26466e-12
1.93625e-12
8.30862e-13
3.22207e-13
1.03885e-13
2.64604e-14
5.14555e-15
2.60265e-15
6.64299e-15
1.55222e-14
5.20468e-14
7.60657e-10
3.07427e-10
8.91219e-10
1.35869e-09
1.35785e-09
1.08369e-09
6.4914e-10
3.14777e-10
1.01167e-10
3.44917e-11
1.43284e-11
6.55867e-12
3.20507e-12
1.46109e-12
6.48207e-13
2.75712e-13
1.02292e-13
2.91749e-14
6.21556e-15
1.47372e-15
2.40406e-15
1.12681e-14
2.39384e-14
9.11719e-10
3.12687e-10
8.2147e-10
1.25781e-09
1.01966e-09
8.23762e-10
6.26336e-10
3.06002e-10
9.12922e-11
2.68087e-11
1.00954e-11
4.56956e-12
2.1659e-12
9.85621e-13
4.35048e-13
1.96242e-13
8.35662e-14
2.80241e-14
6.76335e-15
1.1467e-15
9.78198e-16
2.7129e-15
1.1912e-14
9.7904e-10
3.07863e-10
7.12943e-10
9.90745e-10
7.91093e-10
7.84636e-10
5.80005e-10
2.91139e-10
8.14938e-11
1.9341e-11
6.61816e-12
2.8832e-12
1.34701e-12
5.88552e-13
2.51209e-13
1.14458e-13
5.45878e-14
2.18825e-14
6.34668e-15
1.18765e-15
4.91246e-16
1.47514e-15
4.22592e-15
1.21745e-09
3.1997e-10
5.15519e-10
6.77796e-10
6.52549e-10
6.9739e-10
5.25651e-10
2.62792e-10
6.91544e-11
1.28493e-11
3.87217e-12
1.64387e-12
7.59727e-13
3.1744e-13
1.25459e-13
5.44642e-14
2.70342e-14
1.30227e-14
4.7191e-15
1.10028e-15
1.94179e-16
2.66023e-16
1.61711e-15
1.33198e-09
3.78529e-10
4.27656e-10
5.65499e-10
6.1895e-10
6.15509e-10
4.41509e-10
2.1356e-10
6.15895e-11
8.50899e-12
1.93252e-12
8.25411e-13
3.83669e-13
1.54698e-13
5.54677e-14
2.11818e-14
9.93731e-15
5.37932e-15
2.53051e-15
7.90513e-16
1.2176e-16
9.76194e-17
3.08456e-16
1.62626e-09
5.93882e-10
4.28119e-10
5.57113e-10
6.43828e-10
5.71593e-10
3.55348e-10
1.52311e-10
4.16731e-11
5.55983e-12
7.98949e-13
3.4723e-13
1.66949e-13
6.66002e-14
2.18669e-14
6.7717e-15
2.68932e-15
1.45048e-15
8.64252e-16
3.95258e-16
8.43539e-17
2.48959e-17
6.65286e-17
1.83599e-09
8.8872e-10
5.33865e-10
6.44774e-10
6.73254e-10
4.92199e-10
2.49035e-10
8.71871e-11
2.01196e-11
2.37093e-12
2.5843e-13
1.12779e-13
5.82971e-14
2.36389e-14
7.35545e-15
1.91069e-15
5.49353e-16
2.48771e-16
1.85563e-16
1.32992e-16
3.88932e-17
8.02272e-18
1.27087e-17
2.02014e-09
1.10193e-09
7.74908e-10
8.0606e-10
6.34937e-10
3.36613e-10
1.22913e-10
3.18775e-11
5.29447e-12
4.73921e-13
5.02288e-14
2.39591e-14
1.37887e-14
5.89531e-15
1.79385e-15
4.0235e-16
7.87867e-17
2.52531e-17
2.49139e-17
2.96661e-17
1.49242e-17
3.13862e-18
2.42128e-18
2.11464e-09
1.3532e-09
1.03333e-09
7.55642e-10
3.68694e-10
1.10227e-10
2.39803e-11
3.848e-12
3.96582e-13
2.23453e-14
4.21583e-15
2.4983e-15
1.65868e-15
7.6322e-16
2.36871e-16
4.65739e-17
6.37486e-18
1.37246e-18
2.17366e-18
4.60567e-18
4.74424e-18
1.40394e-18
5.58912e-19
0.000414282
0.000413888
0.000413869
0.000534347
0.00346521
0.00290346
0.00382595
0.00401203
0.00444583
0.0038622
0.00415473
0.00414935
0.00361097
0.00381761
0.0021821
0.00102671
0.000997955
0.00290352
0.00144595
0.00112693
0.00142127
0.0020487
0.00205023
0.0020488
9.34123e-05
0.000102011
0.000314551
0.00127437
4.68087e-05
2.52581e-06
2.47546e-06
0.000885179
2.24466e-06
2.15198e-06
6.51503e-06
0.0012532
3.36785e-06
2.1313e-06
2.15113e-06
0.000537833
6.40277e-06
6.43735e-06
3.87717e-06
3.36621e-06
2.94997e-07
1.66647e-06
2.53202e-06
2.72293e-06
6.37721e-09
6.34653e-09
1.09141e-08
3.04536e-07
6.34511e-09
6.40184e-09
5.17256e-08
1.35116e-07
2.06676e-07
2.2055e-07
1.4623e-07
1.49547e-07
2.55134e-07
2.42619e-07
3.68595e-07
3.4331e-06
2.24207e-07
6.32547e-07
5.60983e-06
6.18606e-06
9.42397e-08
1.30873e-07
4.74944e-06
6.21662e-06
3.24082e-08
6.11693e-08
9.01504e-07
1.91662e-06
3.12224e-08
5.79333e-08
3.06019e-08
3.80511e-09
4.08236e-08
1.56649e-08
8.84127e-09
4.66387e-09
2.03062e-08
1.06475e-08
4.45222e-09
6.02623e-09
4.9731e-09
3.02166e-09
3.03799e-09
3.56726e-09
7.74947e-10
7.31828e-10
7.61245e-10
1.00311e-09
1.06019e-10
7.63928e-11
1.33725e-10
1.53891e-10
1.96081e-11
2.3437e-11
2.52378e-11
3.29735e-11
6.50916e-12
7.25611e-12
1.00732e-11
1.14024e-11
2.56093e-12
3.36143e-12
3.84027e-12
5.01679e-12
1.03453e-12
1.28015e-12
1.78655e-12
2.08812e-12
4.70384e-13
6.71262e-13
8.16801e-13
1.11358e-12
2.56073e-13
3.48315e-13
5.25636e-13
6.58939e-13
1.65668e-13
2.56147e-13
3.36735e-13
5.12701e-13
9.80511e-14
1.48051e-13
2.52661e-13
3.21347e-13
6.82288e-14
9.87876e-14
1.45891e-13
2.44257e-13
2.57238e-14
4.47025e-14
8.29153e-14
1.11558e-13
1.2297e-14
2.0554e-14
3.39083e-14
6.48406e-14
3.86517e-15
7.2696e-15
1.31879e-14
2.07911e-14
1.00848e-15
1.73131e-15
3.28806e-15
6.79428e-15
1.74633e-16
3.28468e-16
6.19532e-16
1.08163e-15
3.27854e-17
5.85971e-17
1.16523e-16
2.42649e-16
5.61869e-18
9.41735e-18
1.63166e-17
2.96023e-17
8.93733e-19
1.29641e-18
1.81769e-18
2.84893e-18
0.000645624
0.000692199
0.000579084
0.00160964
0.00113838
6.98396e-05
0.0011036
0.00111255
0.00257237
0.0121293
0.0139586
0.00837052
0.00181281
0.00385356
0.011146
0.0055021
0.00548714
0.0049669
0.00146358
0.000910868
0.000424362
0.000842595
0.00174478
0.00328199
0.00377101
0.00409615
0.0042369
0.019966
0.0223009
0.0223008
0.0205159
0.00949615
0.0120911
0.00816884
0.00882659
0.010317
0.00814404
0.00136164
0.000884697
0.000423393
0.00336951
0.0101042
0.0101175
0.00921327
0.00327072
0.0133853
0.0222758
0.0223008
0.0223009
0.0223005
0.0223009
0.0171564
0.0113491
0.00921112
0.00750789
0.00595428
0.00603655
0.000967337
0.00367307
0.0101138
0.0101173
0.0100548
0.00638355
0.00173331
0.0114638
0.0148749
0.0223009
0.02229
0.0209541
0.00845234
0.000671934
0.000722134
0.00113812
0.00112094
0.00151466
0.00187131
0.0014665
0.00287772
0.00384964
0.00380431
0.0036885
0.00271343
0.00115392
0.00273098
0.00332613
0.00353058
0.00219311
0.000159067
0.00012369
0.000127944
0.000178703
0.000179377
0.000634557
0.00137336
0.00499757
0.000846432
0.000500954
0.000516017
0.000460037
4.31111e-05
7.91567e-05
0.000721369
0.00119051
0.00127164
0.00133976
0.00128937
0.000948148
0.00011436
4.6374e-05
4.687e-05
0.000217168
0.00238321
0.00582754
0.00736746
0.00247424
0.00195505
0.000492183
0.000146521
4.3023e-05
4.29771e-05
5.52754e-05
8.36947e-05
6.08977e-05
0.00011595
0.000836105
0.000842299
0.000203957
4.80754e-05
5.87189e-05
0.000848589
0.00299238
0.00736742
0.0073675
0.00276311
0.00299804
0.000969872
0.000298662
4.29972e-05
4.28179e-05
4.28052e-05
4.28676e-05
0.000175421
0.0010848
0.00277128
0.00333803
0.00318645
0.00297601
0.00334771
0.00457762
0.00736741
0.00736742
0.00736736
0.00298358
0.00304632
0.00304615
0.00243627
0.00160854
0.00137521
0.000995586
0.000280519
0.00035836
0.00350553
0.00566527
0.0056533
0.00551637
0.00555461
0.00573375
0.0054958
0.00474199
0.0046023
0.00402486
0.00182281
0.0025035
0.00270226
0.00237328
0.00176335
0.00126953
0.000746926
0.000421432
0.00147461
0.0014038
0.000845307
0.000593009
0.000272956
8.4906e-05
9.29255e-08
2.26651e-06
1.90619e-06
2.26585e-07
8.94807e-07
8.84168e-06
5.66997e-05
0.000102489
0.000179557
0.00017513
0.000104501
4.07373e-05
5.77491e-05
0.000196971
4.50142e-08
4.60657e-08
3.79283e-08
4.27238e-08
4.97567e-08
4.36585e-08
1.67817e-08
1.87188e-08
6.27955e-07
3.98548e-07
1.396e-06
-1.65152e-09
-1.13764e-22
2.16249e-25
-4.73937e-19
3.69425e-17
2.32018e-09
1.12967e-08
1.08276e-08
2.26203e-07
4.11674e-07
3.86419e-07
1.49563e-07
6.03802e-08
1.8618e-08
2.56084e-08
1.23743e-06
2.8765e-06
2.28444e-06
5.67166e-07
2.4078e-07
6.09951e-07
2.62191e-06
2.94302e-06
1.31535e-06
1.02754e-06
4.08141e-07
6.44734e-07
7.90951e-07
3.42239e-07
3.44043e-07
3.82863e-07
7.82423e-08
5.91267e-09
2.96975e-12
2.88428e-06
3.87867e-06
3.96366e-06
1.66878e-07
3.06783e-07
1.29519e-06
2.90897e-06
2.99672e-06
1.41378e-06
3.3235e-07
3.03489e-07
5.51126e-07
1.13594e-06
2.88699e-06
6.61963e-06
3.72184e-06
3.45152e-08
5.15459e-12
1.25899e-11
1.41576e-06
3.40715e-06
3.95708e-06
1.53832e-07
1.18206e-06
1.78123e-06
1.8137e-06
1.20559e-06
5.26213e-07
5.7756e-07
6.24816e-06
8.09909e-06
8.10165e-06
7.91172e-06
6.75565e-06
1.93565e-06
2.09998e-10
1.25982e-12
4.9841e-08
5.6483e-07
1.54517e-06
8.60574e-07
4.74374e-06
6.07339e-06
1.54197e-06
3.26173e-07
1.06108e-07
1.00514e-06
7.74161e-06
9.55993e-06
6.25276e-06
3.11625e-06
1.14464e-06
5.2463e-08
1.86793e-08
5.78276e-08
3.91286e-12
4.11094e-08
2.18521e-07
5.70282e-08
5.57828e-08
6.39171e-06
6.07483e-06
1.12137e-07
9.1046e-08
1.03379e-07
3.46296e-06
9.30808e-06
9.19768e-06
2.76692e-08
3.43487e-09
5.13256e-09
2.50255e-08
7.43805e-08
4.62828e-07
4.2094e-07
3.89782e-07
1.0627e-07
5.85977e-08
6.98479e-08
5.93942e-06
3.81919e-06
1.12139e-06
2.70005e-07
1.15475e-07
1.9956e-06
8.21301e-06
3.59573e-06
3.91225e-07
3.40952e-09
1.75226e-07
6.83968e-07
1.56288e-06
1.51129e-06
1.63871e-06
1.08831e-06
1.35394e-07
1.64632e-07
1.32682e-07
7.33584e-07
8.85533e-08
1.32457e-06
1.17186e-06
9.30808e-07
1.406e-06
1.03769e-06
4.8066e-07
2.41806e-07
8.77802e-08
4.16766e-07
2.15952e-06
2.31326e-06
2.31714e-06
2.31689e-06
1.71831e-06
3.15099e-07
2.20505e-06
5.85152e-07
3.73042e-09
6.2364e-09
1.25941e-07
8.16066e-07
9.03248e-07
5.17491e-07
5.85065e-07
4.31153e-07
9.08766e-08
3.57509e-08
3.22371e-08
2.78726e-07
1.47565e-06
2.21704e-06
2.31494e-06
1.39826e-06
2.36147e-06
3.51336e-06
1.43226e-06
5.18934e-09
6.06169e-09
8.23525e-09
2.68569e-08
1.68786e-07
2.00542e-07
4.30747e-07
5.17453e-07
5.1796e-07
4.20835e-07
5.78125e-08
1.14169e-08
4.62237e-09
2.05435e-07
9.76267e-07
3.62381e-08
3.31306e-06
3.51411e-06
1.34745e-06
6.58502e-09
5.51327e-09
4.0505e-09
2.8254e-09
4.68378e-09
7.37631e-09
1.83166e-08
8.4714e-08
2.09418e-07
2.11545e-07
1.81291e-07
2.11864e-08
4.31912e-09
9.95393e-11
1.40755e-10
4.83543e-13
1.08322e-06
3.51406e-06
6.9001e-07
3.55871e-09
2.78014e-09
2.23521e-09
1.70842e-09
1.27622e-09
1.17945e-09
2.33492e-09
5.76516e-09
3.50771e-09
2.62383e-09
2.65099e-09
5.82769e-09
8.74083e-09
8.54998e-09
2.69228e-09
5.26724e-13
2.97121e-07
1.8083e-06
3.72774e-07
9.57669e-10
8.30589e-10
8.42804e-10
8.21794e-10
8.23584e-10
9.75029e-10
1.21737e-09
1.2736e-09
1.4477e-09
2.61329e-09
4.56814e-09
7.15087e-09
7.4718e-09
6.41258e-09
2.49473e-09
1.59357e-12
1.34734e-07
5.21694e-08
1.43877e-07
1.65803e-10
1.8374e-10
2.34628e-10
2.97453e-10
4.31468e-10
6.59147e-10
9.06288e-10
1.35631e-09
2.50697e-09
4.52667e-09
5.74137e-09
5.79835e-09
4.84606e-09
4.05183e-09
2.29432e-09
2.00391e-12
7.74389e-08
5.16666e-08
4.47371e-08
3.7549e-11
4.87023e-11
6.85457e-11
9.78711e-11
1.45208e-10
2.28065e-10
3.52171e-10
5.83453e-10
1.01054e-09
1.65729e-09
2.11136e-09
2.11237e-09
2.21036e-09
2.51524e-09
2.4107e-09
1.95388e-10
5.8774e-09
5.0837e-08
1.09594e-08
1.38944e-11
1.98711e-11
2.94025e-11
4.34488e-11
6.6295e-11
1.00679e-10
1.4769e-10
2.23722e-10
3.42805e-10
5.58241e-10
8.13242e-10
1.09408e-09
2.06671e-09
3.35197e-09
1.89295e-09
2.13641e-09
4.79142e-08
2.31455e-08
1.02746e-08
5.95273e-12
9.0998e-12
1.45203e-11
2.29839e-11
3.7342e-11
6.04486e-11
9.60031e-11
1.5607e-10
2.59338e-10
4.55994e-10
7.9208e-10
1.35558e-09
2.40945e-09
4.06085e-09
1.00587e-09
3.60324e-08
7.45474e-08
2.50361e-08
9.16853e-09
2.71629e-12
4.38503e-12
7.18803e-12
1.18386e-11
2.00005e-11
3.43571e-11
5.89767e-11
1.02907e-10
1.92486e-10
3.70072e-10
7.17522e-10
1.31245e-09
2.33629e-09
4.35239e-09
9.74836e-10
6.04148e-08
7.45741e-08
2.85727e-08
9.17e-09
1.40775e-12
2.3521e-12
3.90291e-12
6.48562e-12
1.11098e-11
1.96939e-11
3.67689e-11
6.93165e-11
1.34098e-10
2.76659e-10
5.84861e-10
1.15161e-09
1.91663e-09
3.43031e-09
1.09687e-09
6.09803e-08
5.64698e-08
2.43863e-08
7.15285e-09
9.23427e-13
1.53285e-12
2.56282e-12
4.26463e-12
7.13343e-12
1.22631e-11
2.07258e-11
3.94259e-11
8.46436e-11
1.96259e-10
4.41671e-10
9.41873e-10
1.57386e-09
2.75821e-09
3.71718e-09
4.77403e-08
4.2103e-08
1.09831e-08
7.15832e-09
6.66897e-13
1.16703e-12
1.98702e-12
3.34408e-12
5.60997e-12
9.04965e-12
1.44989e-11
2.40743e-11
4.33722e-11
8.98056e-11
2.10198e-10
4.92339e-10
1.15998e-09
2.56294e-09
7.18699e-09
8.32912e-09
7.35144e-09
5.95497e-09
6.12675e-09
5.22812e-13
9.08111e-13
1.62555e-12
2.87541e-12
5.06283e-12
8.43187e-12
1.38769e-11
2.23376e-11
3.57725e-11
5.84523e-11
1.08843e-10
2.39894e-10
7.72432e-10
1.90656e-09
8.71772e-09
5.76029e-09
5.73148e-09
5.89315e-09
1.04025e-08
3.22884e-13
6.61391e-13
1.27148e-12
2.39367e-12
4.45025e-12
7.96379e-12
1.37589e-11
2.30492e-11
3.67685e-11
5.66669e-11
8.97444e-11
1.41979e-10
2.2187e-10
1.24348e-09
1.15965e-08
3.45602e-08
5.7117e-09
5.71277e-09
5.69303e-09
2.08113e-13
4.20109e-13
8.81306e-13
1.81314e-12
3.64539e-12
7.08085e-12
1.32294e-11
2.37707e-11
3.98939e-11
6.21794e-11
9.35895e-11
1.31898e-10
1.57938e-10
1.57942e-10
1.19381e-08
8.48314e-08
1.16906e-07
5.71165e-09
9.46349e-08
9.51497e-14
2.26042e-13
5.21479e-13
1.18963e-12
2.66838e-12
5.72519e-12
1.17856e-11
2.30155e-11
4.13292e-11
6.89238e-11
1.05524e-10
1.50853e-10
2.04207e-10
6.43371e-10
1.90109e-08
7.46823e-08
1.58419e-07
9.99606e-08
1.59861e-07
3.83222e-14
9.88943e-14
2.55641e-13
6.63609e-13
1.71486e-12
4.13907e-12
9.44121e-12
2.00287e-11
3.93363e-11
7.18717e-11
1.20058e-10
1.86452e-10
2.58277e-10
2.74383e-10
8.27463e-09
6.75222e-08
1.60208e-07
1.49572e-07
1.62124e-07
1.1746e-14
3.41112e-14
1.01985e-13
3.11936e-13
9.11956e-13
2.51859e-12
6.51934e-12
1.5295e-11
3.30973e-11
6.62818e-11
1.20845e-10
2.07061e-10
3.32676e-10
5.17449e-10
1.76224e-09
2.76303e-08
8.16809e-08
1.62976e-07
1.00014e-07
2.89768e-15
9.07366e-15
3.13398e-14
1.10275e-13
3.78923e-13
1.2313e-12
3.67815e-12
9.87396e-12
2.39493e-11
5.23427e-11
1.04649e-10
1.97147e-10
3.42452e-10
5.60069e-10
8.22439e-10
3.09157e-09
3.21552e-08
8.61533e-08
2.88223e-08
4.74567e-16
1.68226e-15
6.93536e-15
2.922e-14
1.22306e-13
4.84406e-13
1.71174e-12
5.37777e-12
1.49019e-11
3.66224e-11
8.12235e-11
1.66426e-10
3.16729e-10
5.51784e-10
8.67847e-10
1.22787e-09
2.73735e-09
1.4421e-08
1.72594e-09
5.55123e-17
1.96533e-16
8.52749e-16
4.2294e-15
2.28466e-14
1.1317e-13
5.06785e-13
1.98316e-12
6.70382e-12
1.95813e-11
5.01854e-11
1.15751e-10
2.48728e-10
4.82868e-10
8.05814e-10
1.14406e-09
1.42977e-09
2.5795e-09
1.11901e-09
4.45174e-18
1.23037e-17
4.87808e-17
2.70905e-16
1.75581e-15
1.15579e-14
6.96811e-14
3.64736e-13
1.61812e-12
5.99714e-12
1.87928e-11
5.11253e-11
1.24011e-10
2.80559e-10
6.11477e-10
1.02323e-09
1.21226e-09
1.24461e-09
9.51454e-10
)
;

boundaryField
{
    leftWall
    {
        type            zeroGradient;
    }
    rightWall
    {
        type            zeroGradient;
    }
    lowerWall
    {
        type            zeroGradient;
    }
    atmosphere
    {
        type            inletOutlet;
        inletValue      uniform 0;
        value           nonuniform List<scalar> 
46
(
2.11464e-09
1.3532e-09
1.03333e-09
7.55642e-10
3.68694e-10
1.10227e-10
2.39803e-11
3.848e-12
0
0
0
0
0
0
0
0
6.37485e-18
1.37246e-18
2.17366e-18
4.60567e-18
4.74424e-18
1.40394e-18
5.58912e-19
8.93733e-19
0
0
0
0
0
0
0
0
0
0
0
0
0
0
0
0
0
0
1.02323e-09
1.21226e-09
1.24461e-09
0
)
;
    }
    defaultFaces
    {
        type            empty;
    }
}


// ************************************************************************* //
