/*--------------------------------*- C++ -*----------------------------------*\
| =========                 |                                                 |
| \\      /  F ield         | OpenFOAM: The Open Source CFD Toolbox           |
|  \\    /   O peration     | Version:  2312                                  |
|   \\  /    A nd           | Website:  www.openfoam.com                      |
|    \\/     M anipulation  |                                                 |
\*---------------------------------------------------------------------------*/
FoamFile
{
    version     2.0;
    format      ascii;
    arch        "LSB;label=32;scalar=64";
    class       volScalarField;
    location    "4.4";
    object      alpha.water_0;
}
// * * * * * * * * * * * * * * * * * * * * * * * * * * * * * * * * * * * * * //

dimensions      [0 0 0 0 0 0 0];

internalField   nonuniform List<scalar> 
2268
(
3.53213e-07
3.38506e-07
1.33814e-07
1.98551e-08
3.60943e-09
1.48607e-09
4.27318e-10
1.50657e-10
9.5908e-11
7.00798e-11
6.13531e-11
5.96788e-11
6.30523e-11
7.2436e-11
8.87389e-11
1.15769e-10
1.53845e-10
2.14011e-10
3.03665e-10
5.81642e-10
1.04789e-09
1.3692e-09
1.45883e-09
2.7254e-07
1.65021e-07
6.01572e-08
8.99402e-09
1.25837e-10
1.65587e-10
1.59121e-10
1.40569e-10
1.33004e-10
1.32692e-10
1.22874e-10
1.04712e-10
9.76701e-11
1.09213e-10
1.36407e-10
1.79659e-10
2.70243e-10
4.70952e-10
6.20505e-10
9.30184e-10
1.45289e-09
1.56649e-09
1.53841e-09
8.69049e-08
4.81991e-08
1.2607e-08
1.34525e-10
1.25751e-10
2.23119e-10
3.82026e-10
5.74447e-10
7.09913e-10
6.65675e-10
4.58816e-10
1.88571e-10
2.25931e-10
1.97819e-10
3.18075e-10
3.29917e-10
8.54801e-10
1.28978e-09
1.18502e-09
1.00389e-09
1.31071e-09
1.02667e-09
7.61859e-10
2.02122e-08
9.86038e-09
3.21179e-09
1.67507e-10
1.09917e-10
3.67416e-10
1.35414e-09
1.79128e-09
1.80089e-09
1.36811e-09
6.33953e-10
7.41524e-10
1.56511e-08
8.72818e-09
1.84222e-09
3.98489e-10
1.65414e-10
1.83892e-10
1.38431e-10
8.19057e-11
4.17789e-11
4.53698e-11
4.36716e-11
4.61853e-08
6.0921e-08
2.03076e-08
1.52855e-10
4.55578e-11
6.46333e-11
1.16293e-10
1.60523e-10
1.26496e-10
3.93339e-11
-1.58593e-13
-2.22931e-34
-9.21474e-09
-3.71179e-09
-3.7181e-10
-7.68085e-29
2.61863e-22
3.37354e-22
-6.79071e-13
-4.78517e-12
0.0230269
0.0307826
0.0248254
0.0109187
0.00671155
0.00183537
-3.67905e-15
-4.6256e-15
-4.93127e-14
2.52707e-19
-2.52928e-20
4.25006e-21
5.93457e-21
0.00916722
0.0493774
0.100724
0.169086
0.258136
0.353
0.387991
0.400726
0.436633
0.478211
0.518332
0.613966
0.677956
0.597212
0.561248
0.493604
0.414973
0.356075
0.317834
0.313936
0.33579
0.38609
0.474125
0.587498
0.690847
0.789845
0.875967
0.9187
0.952005
0.944077
0.942988
0.948008
0.924279
0.892754
0.891231
0.926939
0.99653
0.995882
0.994178
0.993927
0.979135
0.96204
0.949545
0.954539
0.978832
0.995634
0.999552
0.999708
0.999718
0.999718
0.987851
0.966252
0.965975
0.981326
0.98441
0.984413
0.974301
0.926909
0.926955
0.0138247
0.012183
0.00640454
0.00600956
0.00818394
0.0116905
0.0116536
0.011268
0.0114031
0.0121343
0.0121152
0.01054
0.00674801
0.00505419
0.00487865
0.00545611
0.00427395
0.00514792
0.00540109
0.0314359
0.00195035
0.00159052
0.00142571
0.00107483
0.000680205
0.00047619
0.000471299
0.000476326
0.000656457
0.000766921
0.000870226
0.000991093
0.00102305
0.00101777
0.00102263
0.00101886
0.00132211
0.0025233
0.0222582
0.00131461
0.000972544
0.000983761
0.000971223
0.0159399
0.0491047
0.0924495
0.06191
0.0418933
0.0646325
0.0710621
0.0446031
0.0435558
0.0540946
0.0415052
0.0291944
0.021345
0.0118243
0.250245
0.419724
0.545857
0.574971
0.638364
0.712741
0.794788
0.8277
0.545377
0.438214
0.464975
0.503822
0.448392
0.454831
0.560143
0.485186
0.462879
0.492717
0.43932
0.704096
0.954246
0.963779
0.94077
0.936466
0.923302
0.911158
0.902251
0.955863
0.869469
0.672192
0.914495
0.614722
0.789981
0.915579
0.896472
0.918558
0.918509
0.692774
0.816448
0.99191
0.991789
0.992087
0.988558
0.927818
0.896372
0.93523
0.964932
0.909441
0.841403
0.956078
0.863546
0.852645
0.915417
0.909757
0.91402
0.916617
0.867079
0.966604
0.991817
0.983779
0.992573
0.992564
0.965669
0.898919
0.973443
0.973443
0.973443
0.973443
0.973445
0.973445
0.973446
0.844426
0.859852
0.86969
0.917355
0.917502
0.975955
0.939956
0.912304
0.97666
0.992326
0.932852
0.91236
0.973442
0.973443
0.973442
0.973445
0.973444
0.973448
0.973445
0.780344
0.842192
0.912905
0.917376
0.916835
0.999699
0.999714
0.999714
0.999655
0.999687
0.999689
0.999717
0.999718
0.999717
0.999718
0.999718
0.999718
0.999718
0.999719
0.999645
0.992713
0.973229
0.977
0.984411
0.984409
0.98441
0.984359
0.978913
0.991408
0.999432
0.999644
0.999639
0.999311
0.999241
0.999678
0.999696
0.999677
0.999718
0.999718
0.999718
0.999684
0.999719
0.999719
0.999719
0.996891
0.985097
0.984675
0.98441
0.983461
0.964051
0.945385
0.879002
0.907354
0.907158
0.889089
0.857661
0.872579
0.910628
0.951455
0.967522
0.973633
0.978926
0.961498
0.955403
0.962513
0.943464
0.859419
0.734491
0.549329
0.455054
0.423697
0.380419
0.334449
0.318491
0.198298
0.215408
0.198732
0.159086
0.129338
0.154101
0.220691
0.338479
0.448277
0.477156
0.442743
0.397004
0.303794
0.252186
0.260765
0.143855
0.0367737
0.00726596
0.000982561
0.00017555
2.19641e-11
-1.94043e-20
-4.70082e-06
1.95409e-10
2.42051e-11
3.11959e-10
3.5257e-10
5.04856e-10
2.1601e-06
2.58007e-14
2.60243e-14
8.33402e-13
0.000871534
0.000715788
3.4009e-05
2.46295e-12
-7.27417e-20
-8.67733e-20
-1.9991e-20
-3.67879e-07
1.86249e-05
9.58504e-07
-4.90709e-23
1.48851e-07
3.31641e-05
0.000824553
8.44978e-07
5.061e-05
0.000153457
0.000179258
8.89011e-05
2.15323e-06
2.2738e-06
4.21356e-05
4.19959e-05
3.80515e-05
7.92822e-05
2.9618e-05
-3.72027e-32
3.39893e-12
3.8078e-11
3.05427e-19
7.06434e-05
0.00024056
0.000137435
-3.13387e-17
-1.42735e-22
2.076e-05
0.0011996
0.000241427
0.000568988
0.000574419
0.000498305
0.000436632
0.00123675
0.00278564
0.00412291
0.00439645
0.00418863
0.00470905
0.00513096
0.00447624
0.00209401
0.000485939
8.84497e-05
0.000292611
0.000350055
0.000347036
0.00026624
0.000184792
0.000146905
0.000195308
0.000661323
7.97553e-05
4.13465e-05
3.56915e-05
0.000602575
0.00485184
0.00653324
0.00648603
0.00520187
0.00308982
0.00530793
0.00647486
0.00648238
0.0064749
0.00648225
0.00424905
0.00048374
0.000556529
0.00216412
0.0104421
0.0153609
0.00772639
0.00237902
0.000663291
0.000291617
5.82312e-05
3.52443e-05
1.48189e-05
0.000197363
2.35016e-16
1.95198e-05
0.000203684
4.87486e-07
3.82708e-06
0.000216362
0.00216923
0.00400023
0.00428545
0.0020125
5.02024e-05
0.00270208
0.0150096
0.0167892
0.0167913
0.0167892
0.0167911
0.000664756
0.000225035
2.90243e-05
3.02549e-06
8.54553e-25
2.35016e-16
-5.51212e-22
2.19813e-07
3.11768e-07
1.61051e-06
4.01122e-08
-8.89462e-20
-1.08446e-21
1.53587e-05
4.32958e-05
1.61998e-05
4.87815e-08
0.000903544
0.0070468
0.0103606
0.0109265
0.0109484
0.0110234
0.000664777
1.93583e-05
4.63935e-07
2.5317e-08
3.34663e-08
2.72913e-08
2.68038e-16
6.49699e-07
5.69557e-06
7.10514e-06
1.72566e-06
8.86502e-20
-1.88079e-39
-2.83042e-23
1.98982e-23
1.14929e-11
8.87046e-08
3.2101e-05
0.00012348
1.2362e-05
7.93498e-05
8.6068e-05
0.000141986
0.000135045
2.42581e-06
6.05329e-09
2.36041e-08
2.15793e-08
8.24335e-09
2.26787e-06
8.06e-06
7.96818e-06
7.56693e-06
6.76523e-06
1.15691e-05
1.49283e-05
6.24598e-06
1.32547e-23
1.88754e-24
8.45045e-08
-7.76164e-24
-1.15027e-09
3.62493e-13
-6.62282e-08
-5.76231e-08
-2.04722e-09
5.51691e-09
1.42133e-08
6.06322e-09
9.21639e-09
8.95446e-09
8.25413e-09
7.24719e-06
8.33821e-06
4.55159e-06
5.37096e-06
1.19433e-05
1.82901e-05
1.83356e-05
1.83432e-05
8.19736e-06
1.26964e-06
1.42595e-06
1.23781e-06
6.71572e-07
4.63747e-06
1.66622e-05
9.36883e-06
5.07567e-07
5.51479e-09
5.51193e-09
8.30899e-09
2.25097e-08
8.89606e-09
1.10749e-07
2.12292e-06
2.08654e-06
9.51364e-08
1.88931e-06
1.21959e-05
1.36393e-05
1.78514e-05
1.83421e-05
1.8339e-05
1.19092e-05
4.3964e-06
9.04575e-06
1.93287e-05
1.93192e-05
1.93136e-05
1.93025e-05
3.81099e-06
6.62224e-09
5.55578e-09
1.15464e-08
3.93683e-08
7.89177e-08
5.62321e-08
3.25862e-09
3.20923e-09
3.1643e-09
2.79616e-08
5.05988e-07
1.85237e-07
1.05679e-06
1.53503e-05
1.83381e-05
1.3941e-05
2.84841e-06
9.70434e-06
1.90692e-05
1.93e-05
1.54893e-05
5.75991e-06
9.48484e-07
6.21956e-09
4.62525e-09
1.06296e-08
2.3679e-08
3.78692e-08
1.70407e-08
3.64971e-09
3.26002e-09
4.55065e-09
5.50331e-10
5.50312e-10
5.47544e-10
1.0992e-08
8.67834e-07
3.84474e-06
2.63674e-06
2.66474e-07
1.28543e-06
1.55556e-05
1.56052e-05
2.11622e-06
5.85699e-07
5.34883e-07
9.80878e-09
3.37949e-09
6.77207e-09
1.02624e-08
6.66043e-09
3.56414e-09
4.47181e-09
4.33841e-09
4.45956e-09
8.08279e-10
5.49173e-10
5.67425e-10
5.68017e-10
7.77813e-09
3.68341e-08
6.00358e-08
1.22453e-08
2.42304e-09
3.96976e-06
1.22896e-05
5.46331e-06
5.41979e-07
4.35637e-07
1.79391e-08
1.93905e-09
3.39383e-09
3.77204e-09
1.46026e-09
2.2148e-09
2.29959e-09
1.21996e-09
1.03551e-09
6.69469e-10
7.19766e-10
8.00573e-10
9.10378e-10
1.21944e-09
1.91154e-09
3.317e-09
1.31929e-09
2.42516e-09
1.92929e-09
2.48929e-06
5.24246e-06
5.13935e-07
4.1679e-07
1.89254e-08
1.21843e-09
1.53136e-09
1.53572e-09
6.86738e-10
6.51128e-10
5.38e-10
4.02358e-10
4.78328e-10
5.39403e-10
6.28883e-10
8.38763e-10
1.09595e-09
1.24568e-09
1.41323e-09
1.32408e-09
1.00889e-09
8.75368e-10
1.90754e-09
8.78516e-09
4.79124e-07
3.49034e-07
3.27462e-07
1.8922e-08
6.54143e-10
6.4838e-10
6.50528e-10
4.11008e-10
3.23927e-10
2.73886e-10
2.50257e-10
2.72849e-10
3.05018e-10
3.90001e-10
5.55244e-10
7.45373e-10
9.15315e-10
1.02449e-09
9.53685e-10
8.46584e-10
9.75591e-10
1.43403e-09
2.16374e-09
1.5654e-09
1.48462e-07
7.55002e-08
1.90179e-08
4.95966e-10
3.38085e-10
3.50535e-10
2.64217e-10
2.11335e-10
1.72328e-10
1.46443e-10
1.32019e-10
1.23874e-10
1.48408e-10
1.95978e-10
2.62028e-10
3.329e-10
3.89184e-10
4.07233e-10
4.12003e-10
5.16714e-10
7.82084e-10
1.19765e-09
1.55729e-09
1.22427e-09
2.50125e-08
1.88155e-08
3.90072e-10
2.34073e-10
2.29398e-10
1.85139e-10
1.50889e-10
1.2314e-10
1.01715e-10
8.12463e-11
6.62568e-11
6.27253e-11
7.09571e-11
8.68182e-11
1.08601e-10
1.32629e-10
1.50909e-10
1.68497e-10
2.13944e-10
3.30095e-10
5.77559e-10
9.57052e-10
1.18838e-09
1.14762e-08
1.92693e-08
2.83421e-10
2.16955e-10
1.95258e-10
1.79611e-10
1.73443e-10
1.62938e-10
1.36655e-10
9.6432e-11
5.93024e-11
3.99018e-11
3.21191e-11
3.17654e-11
3.70352e-11
4.57454e-11
5.56529e-11
6.72354e-11
8.73061e-11
1.32543e-10
2.2858e-10
4.2638e-10
7.47375e-10
3.29974e-09
1.92564e-08
2.80361e-10
2.37137e-10
2.39723e-10
2.5819e-10
2.63194e-10
2.4505e-10
2.02677e-10
1.41433e-10
8.0888e-11
4.50332e-11
2.57093e-11
1.65319e-11
1.39141e-11
1.54512e-11
1.94038e-11
2.52735e-11
3.4617e-11
5.33668e-11
9.02879e-11
1.58131e-10
3.29059e-10
7.75718e-10
1.9911e-08
2.82774e-10
2.76951e-10
3.05778e-10
3.33396e-10
3.52176e-10
3.44257e-10
3.01361e-10
2.17781e-10
1.21005e-10
6.16241e-11
3.24757e-11
1.6331e-11
8.42167e-12
5.99437e-12
6.53171e-12
8.86899e-12
1.31833e-11
2.07275e-11
3.4347e-11
6.00364e-11
9.99479e-11
2.13725e-10
1.97859e-08
3.04962e-10
3.03124e-10
3.68422e-10
4.44366e-10
5.28962e-10
5.12788e-10
4.34254e-10
3.29142e-10
1.82709e-10
8.63806e-11
4.5131e-11
2.20363e-11
9.70273e-12
4.1646e-12
2.63581e-12
3.05917e-12
4.80404e-12
8.06879e-12
1.37561e-11
2.28725e-11
4.58904e-11
7.39168e-11
2.16863e-08
3.0652e-10
3.44179e-10
4.90595e-10
7.82227e-10
1.28989e-09
1.11637e-09
5.72471e-10
4.61233e-10
2.65207e-10
1.15889e-10
6.04938e-11
3.04674e-11
1.34768e-11
5.15908e-12
1.8866e-12
1.23168e-12
1.7009e-12
2.95451e-12
5.22027e-12
9.41336e-12
1.54921e-11
2.97995e-11
2.28068e-08
4.13457e-10
4.35219e-10
7.04735e-10
1.51971e-09
2.70229e-09
3.73739e-09
6.67277e-10
5.79047e-10
3.62602e-10
1.46808e-10
7.56508e-11
3.95088e-11
1.85001e-11
7.27849e-12
2.50116e-12
7.84332e-13
6.18419e-13
1.03806e-12
1.94091e-12
3.45177e-12
7.33362e-12
1.12686e-11
2.44193e-08
5.1561e-10
1.04925e-09
3.38411e-09
3.33726e-09
3.03765e-08
1.55109e-08
6.42879e-10
6.59961e-10
4.59984e-10
1.75857e-10
8.59992e-11
4.71411e-11
2.35633e-11
9.83149e-12
3.47601e-12
1.09676e-12
3.22023e-13
3.48033e-13
6.23662e-13
1.30812e-12
2.06579e-12
4.3518e-12
2.38142e-08
4.78505e-10
4.7835e-10
2.6849e-08
2.70037e-07
5.16932e-07
1.67426e-07
6.42894e-10
7.08694e-10
5.81347e-10
2.08376e-10
8.9634e-11
5.10543e-11
2.7123e-11
1.21932e-11
4.67645e-12
1.46612e-12
3.61518e-13
1.38948e-13
2.05502e-13
3.66395e-13
8.68258e-13
1.30836e-12
2.8245e-08
1.27916e-09
2.50045e-08
2.59389e-07
9.70349e-07
9.19926e-07
5.0472e-07
6.52884e-10
7.73297e-10
6.4295e-10
2.11809e-10
8.52167e-11
4.98516e-11
2.77439e-11
1.38651e-11
5.78169e-12
1.95315e-12
5.27111e-13
8.95804e-14
6.76062e-14
1.32666e-13
2.21692e-13
4.42285e-13
2.41956e-08
2.64397e-09
1.06935e-07
5.67758e-07
1.08529e-06
9.44798e-07
2.09949e-07
6.48785e-10
1.14926e-09
6.35694e-10
1.94221e-10
7.36725e-11
4.35054e-11
2.57222e-11
1.37746e-11
6.36025e-12
2.39398e-12
7.30914e-13
1.25135e-13
2.83827e-14
3.5803e-14
8.79147e-14
1.30214e-13
4.49269e-08
9.82688e-09
1.63404e-07
7.28752e-07
1.0846e-06
4.85622e-07
8.29264e-10
1.95014e-09
1.70609e-09
5.74715e-10
1.6115e-10
5.80944e-11
3.48805e-11
2.10681e-11
1.19742e-11
6.12628e-12
2.59634e-12
8.66027e-13
2.14474e-13
2.14673e-14
1.16834e-14
1.81861e-14
4.22987e-14
5.0522e-08
1.09456e-08
1.56423e-07
5.13126e-07
4.47917e-07
2.52841e-08
8.35467e-10
2.87799e-09
1.75953e-09
4.51842e-10
1.20064e-10
4.23378e-11
2.54539e-11
1.53654e-11
9.02117e-12
5.04364e-12
2.43806e-12
9.10307e-13
2.58799e-13
3.01112e-14
4.72236e-15
6.48345e-15
1.02844e-14
5.7323e-08
1.03425e-08
9.30136e-08
3.0811e-07
6.24446e-08
1.50311e-09
1.48103e-09
2.52966e-09
1.13687e-09
3.00791e-10
7.98519e-11
2.86554e-11
1.67985e-11
1.00482e-11
5.88005e-12
3.48416e-12
1.91686e-12
8.34208e-13
2.6859e-13
4.3521e-14
3.03565e-15
1.39772e-15
3.15613e-15
5.35771e-08
8.07109e-09
6.99952e-08
1.3584e-08
1.07611e-08
5.12222e-09
2.51262e-09
1.76764e-09
5.86293e-10
1.74592e-10
4.6868e-11
1.73566e-11
1.0197e-11
5.83738e-12
3.30151e-12
1.98356e-12
1.21707e-12
6.26261e-13
2.37328e-13
5.55044e-14
3.94129e-15
6.11384e-16
7.37522e-16
7.52008e-08
7.55191e-09
1.02647e-08
1.60462e-09
2.47874e-09
5.52127e-09
2.95807e-09
1.23379e-09
3.03147e-10
8.89361e-11
2.28873e-11
9.42997e-12
5.62698e-12
3.05791e-12
1.60004e-12
9.24777e-13
5.9438e-13
3.63513e-13
1.68589e-13
5.1796e-14
5.31248e-15
3.04302e-16
2.00175e-16
6.86673e-08
4.49087e-09
1.60473e-09
1.60455e-09
4.51995e-09
4.86254e-09
2.73317e-09
1.12493e-09
2.88349e-10
4.40306e-11
9.06659e-12
4.53102e-12
2.78786e-12
1.44496e-12
6.80645e-13
3.50931e-13
2.18185e-13
1.50672e-13
8.93414e-14
3.61288e-14
5.35859e-15
2.94789e-16
5.02774e-17
1.45215e-07
1.28718e-08
1.60465e-09
1.18199e-08
1.70726e-08
7.52111e-09
2.86714e-09
1.0325e-09
2.58796e-10
3.04685e-11
3.18804e-12
1.86483e-12
1.19547e-12
6.04407e-13
2.56529e-13
1.07959e-13
5.91151e-14
4.22323e-14
3.15839e-14
1.8011e-14
4.58641e-15
2.92336e-16
1.77083e-17
1.62107e-07
7.74007e-08
1.24107e-08
4.80559e-08
1.94355e-08
6.66081e-09
2.33467e-09
7.1676e-10
1.56274e-10
1.71515e-11
1.14135e-12
6.14662e-13
4.13893e-13
2.10126e-13
8.32967e-14
2.91051e-14
1.20164e-14
7.75784e-15
7.2885e-15
6.20901e-15
2.29405e-15
2.52395e-16
1.21011e-17
1.65175e-07
1.38302e-07
1.07304e-07
5.48788e-08
1.39766e-08
4.7546e-09
1.30853e-09
2.98705e-10
4.8268e-11
4.17491e-12
2.21435e-13
1.33305e-13
9.78314e-14
5.20105e-14
2.00634e-14
5.99339e-15
1.72536e-15
8.78556e-16
1.08254e-15
1.44527e-15
9.122e-16
1.74694e-16
1.61712e-17
1.43417e-07
1.41602e-07
9.83374e-08
2.45047e-08
5.70571e-09
1.14259e-09
2.19053e-10
3.65414e-11
3.8875e-12
1.88759e-13
1.39682e-14
1.44357e-14
1.18833e-14
6.80878e-15
2.70314e-15
7.24537e-16
1.52936e-16
5.68644e-17
1.03994e-16
2.38929e-16
2.94644e-16
1.02192e-16
1.13033e-17
0.979865
0.97876
0.9774
0.976226
0.938439
0.938523
0.946014
0.976164
0.369867
0.430357
0.501743
0.645818
-2.79955e-19
0.000976051
0.00889281
0.0554158
0.00114857
0.000321136
3.15932e-05
8.20166e-09
0.00587968
0.0059219
0.0024241
-1.866e-26
0.000383918
0.00038061
0.00680245
0.0136395
0.000869966
0.00115952
0.00549308
0.0183904
0.0124356
0.00119259
0.00848206
0.0183904
0.00449506
0.00180974
0.0104108
0.0183904
3.28189e-05
0.000489614
0.00214188
0.00227834
-1.32523e-22
1.14764e-17
-1.24401e-09
-6.99224e-10
-4.55048e-24
3.2995e-08
2.66763e-07
2.73223e-07
8.28703e-08
2.9858e-07
2.95664e-07
2.34949e-07
3.72126e-07
3.38342e-07
2.3201e-07
2.0068e-07
4.86264e-07
7.93985e-07
3.90629e-06
2.78736e-05
6.65233e-07
4.48509e-06
4.2683e-05
4.66555e-05
6.06757e-07
1.27673e-06
3.2062e-05
4.68701e-05
3.84559e-07
1.31349e-06
5.15288e-06
1.17126e-05
2.4995e-07
8.35487e-07
4.72012e-07
8.016e-09
9.05874e-08
2.00346e-07
1.1708e-07
1.58989e-08
3.6988e-08
4.20656e-08
1.96919e-08
1.55125e-08
9.66027e-09
6.60956e-09
7.21589e-09
6.63906e-09
1.8301e-09
1.79769e-09
1.73933e-09
2.15308e-09
3.94269e-10
3.66534e-10
5.61793e-10
6.4419e-10
1.15641e-10
1.60757e-10
1.75313e-10
2.36882e-10
4.70904e-11
5.5939e-11
8.05121e-11
9.21801e-11
1.90627e-11
2.5778e-11
2.97117e-11
3.94263e-11
6.81944e-12
8.42605e-12
1.19529e-11
1.3774e-11
2.22863e-12
3.10484e-12
3.67388e-12
5.01805e-12
6.74916e-13
8.51491e-13
1.22494e-12
1.43736e-12
2.16664e-13
2.81163e-13
3.25273e-13
4.49043e-13
5.83408e-14
7.18295e-14
9.75912e-14
1.0488e-13
1.88806e-14
2.16038e-14
2.46083e-14
3.10923e-14
4.46191e-15
5.61563e-15
7.07846e-15
7.36709e-15
1.26809e-15
1.503e-15
1.73557e-15
2.08584e-15
3.08489e-16
3.87714e-16
4.66541e-16
4.92421e-16
7.12064e-17
8.37997e-17
1.015e-16
1.22085e-16
1.32584e-17
1.72673e-17
2.14365e-17
2.37602e-17
2.67921e-18
3.15094e-18
3.98518e-18
5.05294e-18
5.64921e-19
5.87701e-19
7.20068e-19
8.54296e-19
1.77268e-19
1.12369e-19
1.10002e-19
1.23206e-19
0.976163
0.871552
0.855474
0.924027
0.978569
0.911868
0.972099
0.972639
0.973408
0.961405
0.943574
0.954426
0.973448
0.941805
0.77981
0.890788
0.916055
0.917394
0.917571
0.976099
0.921223
0.856073
0.913176
0.918937
0.820674
0.804701
0.848758
0.627022
0.53704
0.773545
0.864947
0.884414
0.799064
0.776764
0.637215
0.442319
0.53987
0.859162
0.791438
0.775298
0.643388
0.415797
0.360232
0.531331
0.602731
0.266742
4.45557e-12
0.0272444
0.29332
0.395558
0.419231
0.30676
0.137434
3.82863e-06
0.00144786
0.0462468
0.0912939
0.153877
0.207412
0.123437
0.0142807
0.013982
0.167226
0.220655
0.0462994
4.06549e-12
3.64729e-12
2.62065e-12
1.84509e-12
1.51277e-13
3.34029e-13
8.06836e-05
3.76091e-06
0.000335181
0.00080774
0.000904888
4.70179e-14
-2.56693e-19
-5.99723e-20
4.62829e-21
0.000326386
0.0748988
0.14104
0.0162493
1.58123e-11
2.48693e-06
1.31216e-05
1.28357e-05
5.90512e-06
2.96387e-05
0.000145825
0.000212957
0.00102133
0.00146484
0.00189813
1.5472e-31
-4.3344e-17
-1.1082e-14
-9.06274e-14
1.31382e-19
0.0376061
0.118457
0.0291714
0.00015335
0.00012199
0.00024851
0.000531271
0.000640713
0.000503918
0.000291992
0.000267471
0.000441158
0.00053462
0.00197549
0.0124478
1.5952e-11
7.29576e-05
0.000211158
-1.9644e-06
0.0189897
0.0684119
0.0578772
0.000664473
0.000620091
0.000508686
0.000953066
0.00187755
0.0023136
0.00264152
0.00164403
0.000511605
0.000682364
0.00133397
0.0183904
0.0156022
0.00102677
0.000531761
0.000814538
0.00164596
0.00761423
0.0135402
0.00658409
0.00073549
8.7287e-05
6.10641e-05
0.000663999
0.0037421
0.0037377
0.0034189
0.00265952
0.00190921
7.94375e-08
0.0183904
0.0183904
0.0180556
0.00902809
0.00582527
0.00678809
0.00747874
0.00774157
0.00622256
0.002184
0.00020084
6.1439e-05
0.00047731
0.00270646
0.00372309
0.00345003
0.0023142
0.000929872
7.91343e-08
0.0183904
0.0131723
0.0088317
0.00783404
0.00686037
0.00686493
0.00783404
0.0078314
0.00229809
2.91321e-05
3.23675e-05
0.000112084
0.000310636
0.000274937
0.000264191
1.27363e-06
1.29998e-07
1.1214e-07
4.11673e-07
0.00126803
0.000332105
4.62363e-05
0.000318289
0.000805808
0.000783098
0.00149867
0.00178354
0.00058149
2.95288e-05
2.64814e-05
3.40989e-05
2.91851e-06
2.13063e-06
1.32283e-06
4.45497e-07
4.35885e-07
3.14921e-06
3.75088e-06
-1.1035e-09
-4.41766e-10
7.80401e-23
-3.43584e-24
-1.24151e-22
2.3512e-15
-2.26694e-08
-2.47011e-08
2.44395e-13
1.23948e-06
5.85751e-06
3.24834e-06
6.26543e-07
2.0346e-06
1.41268e-06
1.0387e-06
4.49681e-06
1.16713e-05
6.7455e-06
2.50576e-07
6.31976e-08
1.42603e-10
-6.97862e-28
-4.71886e-18
1.40794e-10
5.71384e-06
9.16701e-06
8.53323e-06
5.21992e-06
1.14612e-07
1.26055e-07
1.0751e-07
3.56203e-07
1.10614e-06
1.23721e-06
1.17299e-05
1.15806e-05
1.1649e-05
9.7616e-08
5.22647e-08
1.2625e-10
1.42756e-06
1.12913e-05
1.47579e-05
1.3652e-05
1.43863e-06
1.1481e-06
1.17148e-06
4.72423e-06
1.50264e-05
1.09718e-05
2.9972e-06
9.86565e-07
3.09738e-06
1.11207e-05
1.00779e-05
1.1544e-05
9.84346e-08
1.17464e-05
2.23361e-05
2.25453e-05
2.18669e-05
8.91267e-06
4.72539e-06
1.14285e-05
1.62296e-05
1.9909e-05
2.12459e-05
2.14282e-05
2.1452e-05
1.60692e-05
1.00614e-06
6.15881e-06
1.06708e-05
8.34596e-06
1.29429e-06
3.30828e-05
3.58568e-05
2.37583e-05
1.46315e-05
4.79361e-06
3.68153e-07
7.55102e-06
1.82658e-05
1.94048e-05
2.00155e-05
1.56107e-05
1.51365e-05
1.93259e-05
1.34547e-05
1.1634e-06
4.84481e-06
1.01271e-05
8.12309e-07
7.7945e-08
4.69192e-05
2.36344e-05
2.71737e-06
1.12769e-06
3.53318e-07
3.36174e-07
2.60944e-06
2.11723e-06
2.10759e-06
4.73903e-06
7.51421e-06
5.83711e-06
5.69922e-06
1.26833e-05
1.30813e-05
1.2235e-05
4.9688e-06
7.7859e-08
7.61703e-08
4.69087e-05
1.58861e-05
1.06444e-06
1.06454e-06
2.19251e-06
8.28392e-07
8.51606e-07
1.75772e-06
1.28506e-05
4.10196e-05
4.47699e-05
2.91384e-05
2.61298e-05
3.10137e-05
3.17538e-05
2.82379e-05
6.90503e-06
1.53992e-06
7.54859e-08
6.8084e-06
4.59049e-06
3.03491e-06
1.29972e-06
3.2172e-06
3.6142e-06
3.57512e-06
1.19654e-06
3.41109e-05
5.25032e-05
5.25032e-05
5.25032e-05
4.89455e-05
2.57375e-05
3.38716e-05
3.54918e-05
3.2921e-05
7.04479e-06
1.1779e-07
5.52266e-09
5.86564e-09
1.13956e-06
1.26354e-06
1.23416e-06
1.77788e-06
1.99989e-06
1.20829e-06
2.75456e-06
3.20947e-05
4.24406e-05
1.07374e-05
2.34725e-09
2.33131e-09
2.28688e-05
3.90286e-05
3.93015e-05
1.13772e-05
7.54859e-08
6.56998e-09
6.08283e-09
5.43305e-09
5.60348e-08
2.37012e-07
6.84583e-07
2.16438e-07
2.49876e-09
1.87238e-06
5.42291e-06
6.05725e-06
3.96293e-06
2.76213e-07
2.28548e-09
2.24661e-09
3.39779e-05
3.92183e-05
9.61371e-06
7.45457e-08
7.64431e-09
6.60987e-09
5.46806e-09
2.66692e-09
2.0606e-09
2.0798e-09
2.09985e-09
2.08643e-09
1.95755e-08
4.13575e-07
1.50282e-06
1.47767e-06
3.26408e-07
2.72744e-09
2.25351e-09
2.29859e-05
3.25424e-05
2.77175e-06
7.5486e-08
4.7813e-09
4.95517e-09
5.34434e-09
4.88835e-09
3.96625e-09
2.94264e-09
2.10459e-09
2.62611e-09
1.93919e-09
1.28567e-09
1.1937e-09
3.02943e-07
3.77929e-07
9.20781e-08
2.26474e-09
1.07464e-05
9.17905e-06
4.25676e-07
2.16102e-07
2.20954e-09
2.74555e-09
3.52413e-09
3.81182e-09
4.23248e-09
4.85962e-09
5.86263e-09
5.20087e-09
3.89599e-09
7.4812e-09
2.22755e-07
3.96015e-07
3.85536e-07
1.62912e-07
2.21219e-08
1.91736e-06
1.50834e-06
1.98338e-07
2.1887e-07
8.08317e-10
1.16009e-09
1.75275e-09
2.41338e-09
3.51876e-09
5.21989e-09
6.66276e-09
1.11901e-08
4.27511e-08
1.20804e-07
1.79188e-07
1.81757e-07
1.24948e-07
7.98339e-08
6.59707e-08
2.10552e-09
2.09647e-09
4.20223e-09
2.18503e-07
2.90028e-10
4.17898e-10
6.2356e-10
9.06515e-10
1.32246e-09
2.0868e-09
3.45332e-09
8.04058e-09
1.62831e-08
2.49135e-08
2.90684e-08
2.71434e-08
2.11115e-08
1.80558e-08
3.68409e-08
1.66566e-08
2.65325e-09
2.54146e-09
1.74249e-07
1.14889e-10
1.65438e-10
2.42969e-10
3.5102e-10
5.22642e-10
7.67933e-10
1.07265e-09
1.67363e-09
2.52425e-09
3.90281e-09
6.16667e-09
6.71068e-09
8.65389e-09
1.72075e-08
2.19792e-08
9.65159e-09
3.17157e-09
7.65239e-09
1.66784e-07
4.64511e-11
7.03268e-11
1.11057e-10
1.73536e-10
2.80097e-10
4.53024e-10
7.17802e-10
1.15123e-09
1.88867e-09
3.17865e-09
5.20463e-09
6.43763e-09
1.29986e-08
2.82668e-08
4.60723e-08
3.94229e-08
1.55206e-08
4.18509e-08
1.20229e-07
1.79143e-11
2.86803e-11
4.71192e-11
7.83676e-11
1.35211e-10
2.39881e-10
4.2492e-10
7.65676e-10
1.43764e-09
2.71772e-09
5.01616e-09
7.73292e-09
2.03019e-08
4.2765e-08
5.72739e-08
5.61148e-08
2.1459e-08
5.54604e-08
1.30857e-07
6.1881e-12
1.03553e-11
1.76003e-11
3.07852e-11
5.69448e-11
1.11339e-10
2.32873e-10
4.7408e-10
9.54876e-10
2.0288e-09
4.31299e-09
8.30434e-09
1.74607e-08
3.83289e-08
5.42893e-08
4.07876e-08
1.74504e-08
1.04519e-07
1.30726e-07
1.99238e-12
3.17841e-12
5.46076e-12
9.92081e-12
1.91452e-11
4.07824e-11
8.11275e-11
1.96922e-10
5.2228e-10
1.34779e-09
3.22653e-09
7.43191e-09
1.36324e-08
2.19408e-08
3.20279e-08
2.51583e-08
2.56858e-08
1.20953e-07
1.30859e-07
5.17398e-13
8.04865e-13
1.26746e-12
2.13038e-12
3.91108e-12
7.23766e-12
1.20043e-11
3.38495e-11
1.06872e-10
3.33484e-10
9.5086e-10
2.45192e-09
6.48176e-09
1.31561e-08
1.83276e-08
2.08576e-08
3.58675e-08
1.14723e-07
1.10571e-07
1.41263e-13
1.8615e-13
2.63631e-13
3.91898e-13
6.24043e-13
1.03023e-12
1.51039e-12
4.53879e-12
1.60959e-11
5.45363e-11
1.77537e-10
5.97977e-10
2.85475e-09
4.37665e-09
1.15967e-08
2.46481e-08
4.41531e-08
4.43049e-08
2.82648e-07
3.2788e-14
4.37088e-14
5.7117e-14
7.85311e-14
1.16643e-13
1.84652e-13
2.62773e-13
7.00109e-13
2.45828e-12
9.09414e-12
3.27255e-11
1.20697e-10
5.1871e-10
3.07843e-09
6.46743e-09
1.84781e-08
3.46499e-08
1.9673e-08
3.68622e-07
8.89593e-15
1.04731e-14
1.30521e-14
1.75423e-14
2.65698e-14
4.64846e-14
9.47557e-14
2.02779e-13
6.76165e-13
2.52819e-12
9.48861e-12
3.38959e-11
1.33146e-10
9.28426e-10
2.19273e-09
3.9478e-09
1.01467e-08
1.22128e-08
3.86269e-07
2.17959e-15
2.60865e-15
3.20491e-15
4.38421e-15
7.11791e-15
1.40875e-14
3.44392e-14
1.00426e-13
3.20612e-13
1.03438e-12
4.10297e-12
1.58962e-11
5.63068e-11
3.86043e-10
1.54239e-09
2.3799e-09
4.04166e-09
1.24072e-08
3.8612e-07
5.48026e-16
6.58915e-16
8.42756e-16
1.26338e-15
2.37591e-15
5.39262e-15
1.4576e-14
4.51138e-14
1.54385e-13
5.69856e-13
2.21077e-12
9.07019e-12
3.33002e-11
1.44982e-10
1.15902e-09
3.0938e-09
5.8977e-09
1.41342e-08
2.53502e-07
1.29569e-16
1.62651e-16
2.27302e-16
4.04114e-16
8.92561e-16
2.29313e-15
6.58528e-15
2.04683e-14
7.0593e-14
2.68306e-13
1.09221e-12
4.7226e-12
2.13449e-11
8.92213e-11
5.78688e-10
3.23936e-09
6.30994e-09
1.54576e-08
4.27938e-08
2.91826e-17
3.66575e-17
5.6815e-17
1.1931e-16
3.17614e-16
9.37214e-16
2.83838e-15
8.67064e-15
2.76669e-14
9.47961e-14
3.66449e-13
1.66319e-12
8.2469e-12
4.17863e-11
2.13904e-10
1.77355e-09
4.8826e-09
6.63423e-09
3.65334e-09
5.50722e-18
7.2867e-18
1.22994e-17
3.0464e-17
9.93773e-17
3.54335e-16
1.21906e-15
4.00776e-15
1.28081e-14
4.20167e-14
1.54112e-13
6.71194e-13
3.40505e-12
1.91731e-11
1.07395e-10
4.97548e-10
1.35596e-09
2.16343e-09
3.01112e-10
9.30908e-19
1.18212e-18
1.94713e-18
5.10514e-18
1.95264e-17
8.48806e-17
3.57595e-16
1.38135e-15
4.90694e-15
1.66668e-14
5.86734e-14
2.34909e-13
1.10021e-12
5.51209e-12
3.21336e-11
1.73054e-10
4.66294e-10
7.74156e-10
2.77556e-10
1.2899e-19
1.48476e-19
2.11499e-19
4.72164e-19
1.80558e-18
9.4928e-18
5.17247e-17
2.56026e-16
1.11248e-15
4.2483e-15
1.49686e-14
5.36381e-14
2.10499e-13
9.94507e-13
5.98805e-12
3.51606e-11
1.21132e-10
1.80987e-10
1.28246e-10
)
;

boundaryField
{
    leftWall
    {
        type            zeroGradient;
    }
    rightWall
    {
        type            zeroGradient;
    }
    lowerWall
    {
        type            zeroGradient;
    }
    atmosphere
    {
        type            inletOutlet;
        inletValue      uniform 0;
        value           nonuniform List<scalar> 
46
(
1.43417e-07
1.41602e-07
9.83374e-08
2.45047e-08
5.70571e-09
1.14259e-09
2.19053e-10
3.65414e-11
0
0
0
0
0
0
0
0
1.52936e-16
5.68644e-17
1.03995e-16
2.38929e-16
2.94644e-16
1.02192e-16
1.13034e-17
1.77268e-19
1.1237e-19
0
0
0
0
0
0
0
0
0
0
0
0
0
0
0
0
0
3.51607e-11
1.21132e-10
1.80987e-10
0
)
;
    }
    defaultFaces
    {
        type            empty;
    }
}


// ************************************************************************* //
