/*--------------------------------*- C++ -*----------------------------------*\
| =========                 |                                                 |
| \\      /  F ield         | OpenFOAM: The Open Source CFD Toolbox           |
|  \\    /   O peration     | Version:  2312                                  |
|   \\  /    A nd           | Website:  www.openfoam.com                      |
|    \\/     M anipulation  |                                                 |
\*---------------------------------------------------------------------------*/
FoamFile
{
    version     2.0;
    format      ascii;
    arch        "LSB;label=32;scalar=64";
    class       surfaceScalarField;
    location    "4.4";
    object      phi;
}
// * * * * * * * * * * * * * * * * * * * * * * * * * * * * * * * * * * * * * //

dimensions      [0 3 -1 0 0 0 0];

oriented        oriented;

internalField   nonuniform List<scalar> 
4432
(
2.36258e-06
-2.36254e-06
4.06087e-06
-1.69827e-06
5.61514e-06
-1.55426e-06
7.0096e-06
-1.39445e-06
8.21591e-06
-1.2063e-06
9.1932e-06
-9.77288e-07
9.92901e-06
-7.35805e-07
1.0426e-05
-4.97045e-07
1.06712e-05
-2.4516e-07
1.06364e-05
3.48458e-08
1.03092e-05
3.27169e-07
9.71729e-06
5.91908e-07
8.90035e-06
8.16956e-07
7.90189e-06
9.98469e-07
6.79129e-06
1.11062e-06
5.64268e-06
1.14862e-06
4.50826e-06
1.13444e-06
3.42883e-06
1.07944e-06
2.46471e-06
9.64137e-07
1.62304e-06
8.41685e-07
9.22924e-07
7.00123e-07
2.36901e-07
6.86034e-07
2.36897e-07
1.74352e-06
-4.10593e-06
3.4533e-06
-3.40793e-06
5.02654e-06
-3.12742e-06
6.46443e-06
-2.83227e-06
7.71867e-06
-2.4605e-06
8.73849e-06
-1.99707e-06
9.52152e-06
-1.51883e-06
1.00819e-05
-1.05742e-06
1.03794e-05
-5.42707e-07
1.03787e-05
3.54953e-08
1.00745e-05
6.31358e-07
9.49906e-06
1.16731e-06
8.69637e-06
1.61961e-06
7.70837e-06
1.98646e-06
6.60875e-06
2.21024e-06
5.47139e-06
2.28599e-06
4.35813e-06
2.24774e-06
3.31054e-06
2.12706e-06
2.38206e-06
1.89265e-06
1.60189e-06
1.62189e-06
9.77757e-07
1.32429e-06
3.83968e-07
1.27985e-06
6.20902e-07
1.52362e-06
-5.62949e-06
3.17998e-06
-5.06423e-06
4.73416e-06
-4.68156e-06
6.1685e-06
-4.26657e-06
7.42905e-06
-3.72103e-06
8.45747e-06
-3.02549e-06
9.25722e-06
-2.31858e-06
9.84085e-06
-1.64104e-06
1.01673e-05
-8.69196e-07
1.01957e-05
7.13376e-09
9.89828e-06
9.28751e-07
9.32304e-06
1.74253e-06
8.51835e-06
2.42429e-06
7.52435e-06
2.98043e-06
6.42901e-06
3.30557e-06
5.31428e-06
3.40072e-06
4.23454e-06
3.32748e-06
3.21882e-06
3.14279e-06
2.34113e-06
2.77035e-06
1.62969e-06
2.33334e-06
1.0919e-06
1.86208e-06
6.31999e-07
1.73976e-06
1.25289e-06
1.53283e-06
-7.16231e-06
3.17637e-06
-6.70778e-06
4.7141e-06
-6.21931e-06
6.13586e-06
-5.68838e-06
7.37934e-06
-4.96453e-06
8.37415e-06
-4.02031e-06
9.15406e-06
-3.09849e-06
9.75872e-06
-2.24572e-06
1.01104e-05
-1.22094e-06
1.01397e-05
-2.21327e-08
9.80698e-06
1.26145e-06
9.19028e-06
2.35922e-06
8.34768e-06
3.26689e-06
7.31859e-06
4.00953e-06
6.21939e-06
4.40477e-06
5.12621e-06
4.49391e-06
4.11898e-06
4.33471e-06
3.17916e-06
4.08262e-06
2.38555e-06
3.56397e-06
1.75029e-06
2.96861e-06
1.25902e-06
2.35336e-06
8.62092e-07
2.1367e-06
2.11501e-06
1.74099e-06
-8.9033e-06
3.42793e-06
-8.39475e-06
4.97885e-06
-7.77024e-06
6.38524e-06
-7.09479e-06
7.61702e-06
-6.19632e-06
8.62041e-06
-5.02371e-06
9.39749e-06
-3.87558e-06
1.00109e-05
-2.85915e-06
1.03621e-05
-1.57207e-06
1.03578e-05
-1.78419e-08
9.9343e-06
1.68495e-06
9.22157e-06
3.07196e-06
8.25438e-06
4.2341e-06
7.08016e-06
5.18377e-06
5.89412e-06
5.59082e-06
4.65579e-06
5.73224e-06
3.72937e-06
5.26114e-06
2.93144e-06
4.88055e-06
2.31467e-06
4.18073e-06
1.76547e-06
3.5178e-06
1.22117e-06
2.89765e-06
8.56452e-07
2.50141e-06
2.97144e-06
2.0532e-06
-1.09565e-05
3.81207e-06
-1.01536e-05
5.36234e-06
-9.32054e-06
6.70786e-06
-8.44035e-06
7.94663e-06
-7.4351e-06
9.05146e-06
-6.12855e-06
9.89789e-06
-4.72204e-06
1.03125e-05
-3.27377e-06
1.02558e-05
-1.51543e-06
9.85687e-06
3.81103e-07
9.27749e-06
2.26434e-06
8.58708e-06
3.76239e-06
7.75735e-06
5.06385e-06
6.76938e-06
6.17176e-06
5.81501e-06
6.5452e-06
4.84711e-06
6.70012e-06
4.07264e-06
6.03559e-06
3.42029e-06
5.53286e-06
2.96329e-06
4.63769e-06
2.30361e-06
4.17744e-06
1.09449e-06
4.10674e-06
-1.39357e-07
3.73522e-06
2.8321e-06
2.28667e-06
-1.32433e-05
4.16858e-06
-1.20356e-05
5.73372e-06
-1.08857e-05
6.91319e-06
-9.61985e-06
7.79827e-06
-8.32013e-06
8.90735e-06
-7.23762e-06
1.01811e-05
-5.99576e-06
1.13953e-05
-4.488e-06
1.21643e-05
-2.28452e-06
1.23808e-05
1.64595e-07
1.21312e-05
2.51386e-06
1.11571e-05
4.73641e-06
9.73383e-06
6.48701e-06
7.93656e-06
7.96894e-06
6.07746e-06
8.4042e-06
5.22799e-06
7.54947e-06
3.99619e-06
7.26728e-06
3.47846e-06
6.05049e-06
2.98978e-06
5.12629e-06
2.15556e-06
5.0116e-06
2.61282e-07
6.00096e-06
-2.22994e-06
6.22641e-06
6.02141e-07
2.46477e-06
-1.57081e-05
4.58649e-06
-1.41574e-05
5.97941e-06
-1.22787e-05
7.06375e-06
-1.07042e-05
8.32751e-06
-9.58391e-06
1.02514e-05
-9.16153e-06
1.15138e-05
-7.25817e-06
1.07358e-05
-3.70999e-06
8.00252e-06
4.4866e-07
5.02046e-06
3.14656e-06
3.95604e-06
3.57818e-06
3.87335e-06
4.81898e-06
3.87008e-06
6.49016e-06
4.15585e-06
7.68305e-06
4.56845e-06
7.99151e-06
4.72866e-06
7.38919e-06
5.21266e-06
6.78322e-06
5.55047e-06
5.71264e-06
5.19916e-06
5.47758e-06
4.47215e-06
5.73859e-06
3.89307e-06
6.58002e-06
3.2161e-06
6.90335e-06
3.81825e-06
-1.5245e-06
1.52452e-06
-2.29632e-06
7.71835e-07
-4.02641e-06
1.7301e-06
-6.34972e-06
2.32332e-06
-8.43121e-06
2.0815e-06
-9.92314e-06
1.49194e-06
-1.03504e-05
4.27297e-07
-9.5645e-06
-7.85932e-07
-7.89387e-06
-1.67063e-06
-6.0393e-06
-1.85457e-06
-4.37246e-06
-1.66684e-06
-3.18233e-06
-1.19013e-06
-2.61216e-06
-5.70168e-07
-2.35406e-06
-2.58097e-07
-2.15e-06
-2.04059e-07
-1.67966e-06
-4.70348e-07
-1.02427e-06
-6.55389e-07
-4.15863e-07
-6.08414e-07
-4.15866e-07
-1.72542e-07
1.6971e-06
-1.3271e-06
1.92641e-06
-2.98791e-06
3.39093e-06
-5.26866e-06
4.60408e-06
-7.41233e-06
4.22517e-06
-9.01773e-06
3.09735e-06
-9.67675e-06
1.08633e-06
-8.76227e-06
-1.70041e-06
-7.09122e-06
-3.34168e-06
-5.28194e-06
-3.66385e-06
-3.96027e-06
-2.9885e-06
-3.13393e-06
-2.01647e-06
-2.83582e-06
-8.6828e-07
-2.83358e-06
-2.60335e-07
-2.80532e-06
-2.32312e-07
-2.47677e-06
-7.98904e-07
-1.71035e-06
-1.42181e-06
-7.63409e-07
-1.55536e-06
-1.17928e-06
-8.72814e-07
2.56992e-06
-2.74904e-06
3.80264e-06
-4.31617e-06
4.95807e-06
-5.58256e-06
5.87047e-06
-7.17486e-06
5.81748e-06
-8.94067e-06
4.86316e-06
-9.94968e-06
2.09536e-06
-8.98748e-06
-2.66259e-06
-6.66277e-06
-5.66637e-06
-5.24714e-06
-5.07946e-06
-4.78632e-06
-3.4493e-06
-4.4921e-06
-2.31066e-06
-4.11567e-06
-1.2447e-06
-4.10539e-06
-2.70603e-07
-4.00438e-06
-3.3332e-07
-3.87799e-06
-9.253e-07
-3.52161e-06
-1.7782e-06
-2.27336e-06
-2.80362e-06
-3.45266e-06
-2.44916e-06
5.01911e-06
-5.3302e-06
6.68367e-06
-7.51685e-06
7.14472e-06
-7.15592e-06
5.50954e-06
-6.63422e-06
5.29579e-06
-5.84507e-06
4.07403e-06
-4.17775e-06
4.28066e-07
-1.81614e-06
-5.02419e-06
-1.86381e-07
-7.29612e-06
-1.24639e-06
-4.01943e-06
-4.12423e-06
-5.71449e-07
-2.77042e-06
-3.66446e-06
-4.46804e-06
4.52938e-07
-5.01176e-06
2.73134e-07
-3.23197e-06
-2.1131e-06
-3.62181e-06
-5.35458e-07
-3.26408e-06
-2.13594e-06
-1.56813e-06
-4.49957e-06
-5.0208e-06
-7.29351e-06
1.23126e-05
-1.25459e-05
1.19361e-05
-1.35841e-05
8.1829e-06
-1.06386e-05
2.56407e-06
-6.36333e-06
1.02054e-06
-3.95548e-06
1.6662e-06
-6.92965e-07
-2.83442e-06
4.34563e-06
-1.00628e-05
8.39704e-06
-1.13475e-05
6.05583e-06
-1.6782e-06
1.31704e-06
4.16738e-06
3.30555e-07
-2.67795e-06
-2.55825e-06
3.34177e-06
-3.11293e-06
8.27838e-07
2.60901e-06
-7.83503e-06
5.89081e-06
-3.81727e-06
8.06566e-06
-4.31081e-06
7.69586e-06
-4.1298e-06
2.67502e-06
-7.43805e-06
1.97507e-05
-1.08716e-05
1.53697e-05
-9.91114e-06
7.22244e-06
-5.54279e-06
-1.80424e-06
-1.62957e-06
-2.89266e-06
-2.00513e-06
2.04177e-06
-2.21208e-06
-2.62745e-06
-4.83224e-07
-1.17916e-05
3.17737e-06
-1.50081e-05
4.3465e-06
-2.84731e-06
4.7675e-06
3.74636e-06
5.20363e-06
-3.11409e-06
4.45285e-06
4.09255e-06
2.96598e-06
2.3147e-06
5.08102e-06
-9.95009e-06
7.50289e-06
-6.23913e-06
8.40055e-06
-5.20847e-06
6.3921e-06
-2.12134e-06
9.06717e-06
-5.01606e-06
2.47667e-05
-7.32705e-06
1.76807e-05
-5.68838e-06
5.58379e-06
-1.40024e-06
-6.09238e-06
9.16939e-07
-5.20983e-06
-8.46165e-07
3.80488e-06
-2.32064e-06
-1.15298e-06
-3.13994e-06
-1.09723e-05
-2.15626e-06
-1.59918e-05
5.13739e-07
-5.51732e-06
4.0222e-06
2.37899e-07
5.42614e-06
-4.51802e-06
5.16986e-06
4.34882e-06
4.76148e-06
2.72307e-06
4.60724e-06
-9.79585e-06
5.33835e-06
-6.97024e-06
5.55575e-06
-5.42585e-06
4.60263e-06
-1.16818e-06
1.36698e-05
-2.51707e-06
2.72838e-05
-2.4342e-06
1.75978e-05
-6.08877e-07
3.75846e-06
9.14122e-07
-7.61538e-06
5.58701e-07
-4.85439e-06
-2.35761e-06
6.72121e-06
-3.15586e-06
-3.54716e-07
-5.17992e-06
-8.94827e-06
-7.17041e-06
-1.40013e-05
-4.46075e-06
-8.22696e-06
9.21166e-07
-5.14402e-06
4.38894e-06
-7.98581e-06
4.39117e-06
4.34659e-06
4.48618e-06
2.62804e-06
3.14129e-06
-8.45099e-06
1.75392e-06
-5.5829e-06
9.2264e-07
-4.59457e-06
1.69422e-06
-1.93977e-06
1.5364e-05
2.84899e-06
-1.85571e-05
5.47699e-06
-1.67854e-05
6.36867e-06
-1.31704e-05
5.22102e-06
-9.55668e-06
4.42041e-06
-8.78346e-06
3.96766e-06
-8.70891e-06
3.74104e-06
-7.03167e-06
3.91e-06
-3.87904e-06
4.92148e-06
-5.62898e-07
7.19564e-06
8.72325e-07
8.45194e-06
2.32183e-06
9.0488e-06
4.22207e-06
9.78604e-06
5.75287e-06
1.10571e-05
6.41193e-06
1.28285e-05
6.22019e-06
1.4616e-05
5.60165e-06
1.6598e-05
4.80128e-06
1.73579e-05
4.95278e-06
1.66727e-05
6.16278e-06
1.52718e-05
7.13952e-06
1.42512e-05
7.60056e-06
1.41538e-05
7.00081e-06
6.43009e-06
1.1542e-05
-1.88256e-06
-1.66748e-05
-3.00782e-06
-1.56603e-05
-2.69216e-06
-1.34862e-05
-1.19137e-06
-1.10576e-05
8.46954e-07
-1.08219e-05
2.15629e-06
-1.00183e-05
3.04816e-06
-7.92358e-06
4.97969e-06
-5.8106e-06
7.86193e-06
-3.44515e-06
1.02882e-05
-1.55397e-06
1.18265e-05
7.83608e-07
1.20743e-05
3.97429e-06
1.22168e-05
5.61038e-06
1.29538e-05
5.67493e-06
1.47268e-05
4.44714e-06
1.69078e-05
3.42068e-06
1.79913e-05
3.71782e-06
1.64743e-05
6.46978e-06
1.40807e-05
8.55632e-06
1.2473e-05
8.74721e-06
1.12557e-05
8.81787e-06
1.00112e-05
8.24529e-06
9.62535e-06
6.81597e-06
-2.21509e-06
-1.44599e-05
-3.75757e-06
-1.41181e-05
-3.5979e-06
-1.36461e-05
-1.98151e-06
-1.26741e-05
-1.11705e-06
-1.16864e-05
-2.63889e-07
-1.08715e-05
6.23532e-07
-8.81104e-06
1.89145e-06
-7.07851e-06
4.49611e-06
-6.04979e-06
7.58153e-06
-4.63935e-06
9.12758e-06
-7.62397e-07
8.81263e-06
4.28928e-06
7.82078e-06
6.60227e-06
6.55441e-06
6.94133e-06
4.71204e-06
6.28955e-06
1.79179e-06
6.34094e-06
-2.15326e-06
7.66287e-06
-4.57312e-06
8.88962e-06
-6.07668e-06
1.00599e-05
-6.9305e-06
9.60099e-06
-7.96979e-06
9.85711e-06
-1.01234e-05
1.03989e-05
1.26753e-05
-1.31734e-05
-3.7633e-06
-1.0697e-05
-7.56868e-06
-1.0313e-05
-1.02281e-05
-1.0987e-05
-1.15503e-05
-1.13521e-05
-1.21267e-05
-1.11102e-05
-1.21941e-05
-1.08042e-05
-1.18021e-05
-9.20304e-06
-1.21271e-05
-6.75351e-06
-1.38482e-05
-4.3286e-06
-1.57181e-05
-2.76943e-06
-1.6763e-05
2.82673e-07
-1.74264e-05
4.95275e-06
-1.92815e-05
8.45733e-06
-2.40572e-05
1.1717e-05
-3.1114e-05
1.33464e-05
-3.66869e-05
1.19138e-05
-3.80111e-05
8.98702e-06
-3.7054e-05
7.9325e-06
-3.61891e-05
9.19489e-06
-3.62444e-05
9.65624e-06
-3.6438e-05
1.00507e-05
-3.67067e-05
1.06675e-05
1.19395e-05
-3.5971e-05
-8.32321e-06
-2.37389e-06
-1.57886e-05
-2.84774e-06
-2.1773e-05
-5.00269e-06
-2.65431e-05
-6.58197e-06
-3.02504e-05
-7.40296e-06
-3.42639e-05
-6.79074e-06
-3.87067e-05
-4.76023e-06
-4.3025e-05
-2.43515e-06
-4.6241e-05
-1.11253e-06
-4.76562e-05
-1.35415e-06
-4.71285e-05
-2.44881e-07
-4.513e-05
2.95421e-06
-4.40196e-05
7.34691e-06
-4.49199e-05
1.26172e-05
-4.76405e-05
1.6067e-05
-4.96698e-05
1.3943e-05
-4.98068e-05
9.12399e-06
-5.00692e-05
8.19482e-06
-4.976e-05
8.88559e-06
-4.96066e-05
9.50274e-06
-4.95824e-05
1.00265e-05
-4.93986e-05
1.04836e-05
1.04972e-05
-4.79564e-05
-9.89375e-06
7.5199e-06
-1.7803e-05
5.06153e-06
-2.47217e-05
1.91599e-06
-3.0661e-05
-6.42654e-07
-3.54108e-05
-2.65311e-06
-3.81507e-05
-4.05093e-06
-3.94141e-05
-3.49678e-06
-3.95674e-05
-2.28184e-06
-3.99019e-05
-7.77885e-07
-4.1481e-05
2.24919e-07
-4.37786e-05
2.05274e-06
-4.56156e-05
4.79122e-06
-4.67915e-05
8.52278e-06
-4.69547e-05
1.27804e-05
-4.66624e-05
1.57747e-05
-4.69599e-05
1.42405e-05
-4.83182e-05
1.04823e-05
-4.9578e-05
9.45459e-06
-5.02349e-05
9.54256e-06
-5.04439e-05
9.71169e-06
-5.0451e-05
1.00335e-05
-5.02838e-05
1.03164e-05
9.76459e-06
-4.95512e-05
-7.2635e-06
1.47835e-05
-1.65617e-05
1.43597e-05
-2.611e-05
1.14643e-05
-3.1601e-05
4.84862e-06
-3.48303e-05
5.76357e-07
-3.49248e-05
-3.95625e-06
-3.3441e-05
-4.98062e-06
-3.13285e-05
-4.39446e-06
-3.07231e-05
-1.38344e-06
-3.21909e-05
1.69265e-06
-3.50635e-05
4.92532e-06
-3.83667e-05
8.09439e-06
-4.10946e-05
1.12508e-05
-4.21488e-05
1.38346e-05
-4.18718e-05
1.54979e-05
-4.20674e-05
1.44363e-05
-4.32562e-05
1.16713e-05
-4.4405e-05
1.06035e-05
-4.4874e-05
1.00116e-05
-4.47812e-05
9.619e-06
-4.443e-05
9.68237e-06
-4.41904e-05
1.00769e-05
9.79468e-06
-4.42205e-05
-6.87568e-07
1.54709e-05
-4.15079e-06
1.78227e-05
-1.86831e-05
2.59965e-05
-3.32948e-05
1.94601e-05
-5.53122e-05
2.25935e-05
-6.38897e-05
4.62185e-06
-6.79698e-05
-8.99433e-07
-7.75168e-05
5.15248e-06
-9.09508e-05
1.20489e-05
-7.24426e-05
-1.682e-05
-6.0649e-05
-6.87582e-06
-5.39312e-05
1.37311e-06
-4.8883e-05
6.20151e-06
-4.54196e-05
1.03711e-05
-4.30581e-05
1.31365e-05
-4.19652e-05
1.33437e-05
-4.23257e-05
1.20319e-05
-4.20076e-05
1.02856e-05
-4.08909e-05
8.89494e-06
-3.97252e-05
8.45344e-06
-3.84525e-05
8.40968e-06
-3.74872e-05
9.11166e-06
9.22942e-06
-3.69219e-05
1.186e-05
3.61086e-06
2.34694e-05
6.21332e-06
1.65777e-05
3.28879e-05
3.99826e-06
3.20392e-05
7.58423e-07
2.58333e-05
-1.30081e-05
1.83884e-05
-3.23672e-05
1.84608e-05
-4.71369e-05
1.9924e-05
-4.52363e-05
1.01502e-05
-5.40086e-05
-8.04393e-06
-6.71928e-05
6.31184e-06
-8.68826e-05
2.10595e-05
-8.87608e-05
8.0759e-06
-7.60274e-05
-2.36674e-06
-6.48301e-05
1.93401e-06
-5.88979e-05
7.40823e-06
-5.34033e-05
6.53538e-06
-5.01357e-05
7.01729e-06
-4.63355e-05
5.0944e-06
-4.34195e-05
5.5372e-06
-4.04725e-05
5.46252e-06
-3.82428e-05
6.88169e-06
7.94049e-06
-3.6954e-05
1.28965e-05
-9.28551e-06
6.24616e-06
1.28635e-05
-3.71512e-07
3.95053e-05
2.42898e-06
2.92387e-05
5.89852e-06
2.23634e-05
5.66516e-06
1.86214e-05
3.57902e-06
2.05467e-05
6.47832e-06
1.70252e-05
8.20201e-06
8.42817e-06
-5.21251e-06
5.37493e-06
-1.69759e-05
1.80832e-05
-2.18101e-05
2.5899e-05
-3.62716e-05
2.25394e-05
-5.00128e-05
1.1374e-05
-5.28955e-05
4.81672e-06
-5.10299e-05
5.54292e-06
-5.36902e-05
9.1948e-06
-5.86349e-05
1.19603e-05
-5.2012e-05
-1.52852e-06
-4.36781e-05
-2.79673e-06
-4.16988e-05
3.48332e-06
-4.16752e-05
6.8576e-06
8.58998e-06
-4.23251e-05
-8.16083e-06
-1.12466e-06
-1.37174e-05
1.84199e-05
-2.63713e-06
2.84251e-05
4.40815e-06
2.21934e-05
6.68839e-06
2.00831e-05
5.61417e-06
1.96954e-05
6.11725e-06
2.00429e-05
9.40883e-06
1.37325e-05
9.36862e-06
8.46711e-06
6.84512e-06
7.89689e-06
6.5015e-06
1.84252e-05
7.25365e-06
2.51476e-05
6.3875e-06
2.34079e-05
3.02928e-06
1.47358e-05
-3.86351e-06
1.17136e-05
-9.9066e-06
1.15886e-05
-1.15218e-05
1.08121e-05
-2.59264e-06
3.03147e-06
3.41535e-06
-7.53639e-06
1.40924e-06
-7.90123e-07
-3.00181e-06
7.89448e-06
-1.0692e-05
1.45485e-05
2.28228e-05
-2.49254e-05
-1.22632e-05
1.11386e-05
-8.0585e-06
1.42152e-05
1.01105e-06
1.93558e-05
4.93741e-06
1.82672e-05
6.06424e-06
1.89562e-05
5.64481e-06
2.01146e-05
6.73304e-06
1.89541e-05
8.73599e-06
1.17287e-05
7.9655e-06
9.23639e-06
5.85177e-06
1.00092e-05
9.86688e-06
1.44087e-05
1.76946e-05
1.73187e-05
2.45905e-05
1.65115e-05
2.58478e-05
1.34794e-05
2.399e-05
1.35713e-05
2.31063e-05
1.24721e-05
2.50198e-05
8.89861e-06
2.69838e-05
1.0684e-06
2.2367e-05
-2.92005e-06
1.85807e-05
2.99615e-06
1.80462e-05
8.42899e-06
1.80071e-05
1.45873e-05
1.97031e-05
2.11275e-05
-3.27858e-06
1.44174e-05
-1.25555e-06
1.21924e-05
2.66318e-06
1.54372e-05
4.47335e-06
1.64571e-05
5.38788e-06
1.80416e-05
6.14501e-06
1.93573e-05
8.19572e-06
1.69031e-05
8.23474e-06
1.16892e-05
7.58107e-06
9.88938e-06
7.04599e-06
1.05436e-05
1.00948e-05
1.13591e-05
1.67292e-05
1.06836e-05
2.35909e-05
9.64918e-06
2.73294e-05
9.7404e-06
2.97172e-05
1.11832e-05
3.13774e-05
1.08115e-05
3.23261e-05
7.94955e-06
3.05402e-05
2.85413e-06
2.90313e-05
-1.41149e-06
3.1141e-05
8.8622e-07
3.39683e-05
5.60168e-06
3.70558e-05
1.15001e-05
1.50855e-05
4.16736e-05
7.17158e-07
1.37002e-05
9.79369e-07
1.19303e-05
2.70993e-06
1.37067e-05
4.00698e-06
1.51602e-05
5.49978e-06
1.65489e-05
7.6672e-06
1.719e-05
9.54943e-06
1.50208e-05
9.30678e-06
1.19317e-05
8.64348e-06
1.05525e-05
8.74659e-06
1.04403e-05
1.06597e-05
9.44595e-06
1.38621e-05
7.48117e-06
1.6901e-05
6.61035e-06
1.98857e-05
6.75569e-06
2.23974e-05
8.67153e-06
2.36034e-05
9.60553e-06
2.44382e-05
7.11483e-06
2.62767e-05
1.01553e-06
2.91758e-05
-4.31061e-06
3.29841e-05
-2.92206e-06
3.53244e-05
3.26133e-06
3.67664e-05
1.00578e-05
1.46253e-05
3.72263e-05
1.27705e-06
1.24234e-05
1.51486e-06
1.16927e-05
2.31769e-06
1.29041e-05
3.41983e-06
1.40582e-05
5.07135e-06
1.48975e-05
7.26777e-06
1.49937e-05
8.8632e-06
1.34255e-05
9.35503e-06
1.144e-05
9.46502e-06
1.04427e-05
1.00602e-05
9.84529e-06
1.10188e-05
8.48762e-06
1.19586e-05
6.5417e-06
1.27158e-05
5.85349e-06
1.36177e-05
5.85411e-06
1.51174e-05
7.17215e-06
1.65954e-05
8.12783e-06
1.81701e-05
5.54035e-06
1.94229e-05
-2.37087e-07
2.15686e-05
-6.45618e-06
2.40022e-05
-5.3555e-06
2.48908e-05
2.37291e-06
2.46366e-05
1.03124e-05
1.61929e-05
2.30685e-05
8.31285e-07
1.15921e-05
1.13802e-06
1.1386e-05
1.71649e-06
1.23257e-05
2.669e-06
1.31058e-05
4.08815e-06
1.34785e-05
5.82613e-06
1.32558e-05
7.15655e-06
1.20952e-05
7.8363e-06
1.07604e-05
8.43171e-06
9.84749e-06
9.25727e-06
9.02e-06
1.0049e-05
7.69621e-06
1.03646e-05
6.22655e-06
1.06074e-05
5.6111e-06
1.07481e-05
5.7138e-06
1.15727e-05
6.34789e-06
1.29757e-05
6.72527e-06
1.38382e-05
4.67813e-06
1.33712e-05
2.30173e-07
1.23401e-05
-5.42482e-06
1.28059e-05
-5.82094e-06
1.33237e-05
1.85539e-06
1.21175e-05
1.15185e-05
1.94951e-05
8.81528e-06
3.9179e-07
1.12005e-05
6.40976e-07
1.11369e-05
1.10796e-06
1.18588e-05
1.90921e-06
1.23047e-05
3.0311e-06
1.23568e-05
4.31878e-06
1.19683e-05
5.36757e-06
1.10466e-05
6.11755e-06
1.00107e-05
6.84298e-06
9.1223e-06
7.6567e-06
8.20656e-06
8.2376e-06
7.11562e-06
8.46886e-06
5.99563e-06
8.65913e-06
5.42118e-06
9.05338e-06
5.31989e-06
9.93573e-06
5.46587e-06
1.13165e-05
5.34482e-06
1.21021e-05
3.89281e-06
1.08797e-05
1.45273e-06
7.6737e-06
-2.21853e-06
5.99375e-06
-4.14071e-06
6.49315e-06
1.35618e-06
5.75387e-06
1.22583e-05
2.19519e-05
3.29657e-06
1.1327e-07
1.10872e-05
2.57447e-07
1.09928e-05
6.06454e-07
1.15099e-05
1.25894e-06
1.16523e-05
2.13487e-06
1.1481e-05
3.1236e-06
1.09797e-05
4.00434e-06
1.01661e-05
4.74942e-06
9.26577e-06
5.47208e-06
8.39984e-06
6.15984e-06
7.51904e-06
6.69115e-06
6.58456e-06
6.9799e-06
5.70713e-06
7.26838e-06
5.13295e-06
7.7694e-06
4.8191e-06
8.61916e-06
4.61633e-06
9.7588e-06
4.20538e-06
1.04687e-05
3.18309e-06
1.01828e-05
1.73876e-06
7.75718e-06
2.07284e-07
4.68099e-06
-1.06422e-06
4.11125e-06
1.92625e-06
4.93622e-06
1.14331e-05
2.14657e-05
5.42237e-06
-6.46699e-08
1.11521e-05
-7.64949e-08
1.10048e-05
1.87861e-07
1.12457e-05
7.04599e-07
1.11357e-05
1.41046e-06
1.07752e-05
2.22983e-06
1.01605e-05
3.02975e-06
9.36632e-06
3.7778e-06
8.51788e-06
4.48844e-06
7.68938e-06
5.12887e-06
6.87879e-06
5.6378e-06
6.07581e-06
5.9922e-06
5.35291e-06
6.32835e-06
4.79697e-06
6.77247e-06
4.37513e-06
7.4067e-06
3.98224e-06
8.1535e-06
3.45871e-06
8.67369e-06
2.66299e-06
8.62788e-06
1.78466e-06
7.71471e-06
1.12056e-06
5.61306e-06
1.03758e-06
4.57107e-06
2.96832e-06
6.50052e-06
9.50416e-06
1.8328e-05
9.6376e-06
-2.23298e-07
1.13753e-05
-3.64282e-07
1.11458e-05
-2.22934e-07
1.11044e-05
1.60484e-07
1.07524e-05
7.48744e-07
1.01871e-05
1.46193e-06
9.44747e-06
2.21938e-06
8.60901e-06
2.97456e-06
7.76285e-06
3.69749e-06
6.9666e-06
4.35507e-06
6.22135e-06
4.88502e-06
5.546e-06
5.30017e-06
4.93788e-06
5.66455e-06
4.4327e-06
6.0421e-06
3.99767e-06
6.46005e-06
3.56436e-06
6.86647e-06
3.05233e-06
7.09683e-06
2.43268e-06
7.04873e-06
1.83276e-06
6.68027e-06
1.48901e-06
5.96432e-06
1.75371e-06
5.67207e-06
3.26077e-06
7.85838e-06
7.31746e-06
1.40484e-05
1.21377e-05
-3.77983e-07
1.17534e-05
-6.55664e-07
1.14236e-05
-6.50122e-07
1.1099e-05
-3.9523e-07
1.04976e-05
7.63336e-08
9.71566e-06
7.06283e-07
8.81764e-06
1.42953e-06
7.88589e-06
2.18963e-06
7.00287e-06
2.93665e-06
6.21969e-06
3.60947e-06
5.54864e-06
4.18847e-06
4.9671e-06
4.65991e-06
4.46652e-06
5.05855e-06
4.03413e-06
5.41376e-06
3.64249e-06
5.72945e-06
3.2487e-06
5.9693e-06
2.81248e-06
6.0658e-06
2.33616e-06
5.99302e-06
1.9055e-06
5.8111e-06
1.67094e-06
5.69063e-06
1.87423e-06
6.08968e-06
2.86166e-06
8.1412e-06
5.26634e-06
9.69947e-06
1.24895e-05
-5.37602e-07
1.22909e-05
-9.63225e-07
1.18492e-05
-1.10211e-06
1.12379e-05
-9.77547e-07
1.03731e-05
-6.09995e-07
9.34823e-06
-4.78593e-08
8.25562e-06
6.49793e-07
7.18835e-06
1.41459e-06
6.23818e-06
2.1775e-06
5.45688e-06
2.88347e-06
4.84275e-06
3.49244e-06
4.35819e-06
3.99949e-06
3.95951e-06
4.42202e-06
3.61162e-06
4.77532e-06
3.2892e-06
5.06027e-06
2.96374e-06
5.25482e-06
2.61789e-06
5.33034e-06
2.2606e-06
5.29314e-06
1.94264e-06
5.21248e-06
1.75154e-06
5.26245e-06
1.82437e-06
5.78367e-06
2.34063e-06
7.46045e-06
3.58923e-06
6.03848e-06
1.11212e-05
-7.00061e-07
1.29913e-05
-1.27664e-06
1.24259e-05
-1.55817e-06
1.15196e-05
-1.54671e-06
1.03618e-05
-1.26579e-06
9.06741e-06
-7.50432e-07
7.74037e-06
-6.3776e-08
6.50179e-06
7.13074e-07
5.46142e-06
1.49812e-06
4.6719e-06
2.22524e-06
4.11569e-06
2.85519e-06
3.72827e-06
3.37873e-06
3.43599e-06
3.80243e-06
3.18793e-06
4.1465e-06
2.9451e-06
4.41684e-06
2.69337e-06
4.60694e-06
2.42774e-06
4.70845e-06
2.15901e-06
4.73414e-06
1.91687e-06
4.73848e-06
1.74718e-06
4.84544e-06
1.71747e-06
5.27347e-06
1.91259e-06
6.40405e-06
2.45907e-06
3.57029e-06
8.87176e-06
-8.57926e-07
1.38491e-05
-1.579e-06
1.3147e-05
-1.98623e-06
1.19269e-05
-2.07397e-06
1.04496e-05
-1.85346e-06
8.84699e-06
-1.36276e-06
7.24975e-06
-6.72634e-07
5.81174e-06
1.23324e-07
4.66552e-06
9.3096e-07
3.86432e-06
1.67941e-06
3.36727e-06
2.32272e-06
3.08498e-06
2.84811e-06
2.91059e-06
3.26286e-06
2.77316e-06
3.5888e-06
2.61911e-06
3.83852e-06
2.4436e-06
4.02237e-06
2.24382e-06
4.14592e-06
2.03537e-06
4.2256e-06
1.83711e-06
4.30102e-06
1.6717e-06
4.45065e-06
1.56796e-06
4.79665e-06
1.56675e-06
5.52206e-06
1.73339e-06
2.16097e-06
6.93108e-06
-1.00545e-06
1.48547e-05
-1.85776e-06
1.39995e-05
-2.37432e-06
1.24435e-05
-2.53871e-06
1.06141e-05
-2.35799e-06
8.66636e-06
-1.87517e-06
6.767e-06
-1.17288e-06
5.10951e-06
-3.58126e-07
3.85082e-06
4.7193e-07
3.03429e-06
1.2383e-06
2.60091e-06
1.89479e-06
2.42849e-06
2.42225e-06
2.3831e-06
2.82914e-06
2.36623e-06
3.13124e-06
2.31696e-06
3.35549e-06
2.21927e-06
3.52086e-06
2.07837e-06
3.64532e-06
1.91081e-06
3.74887e-06
1.73346e-06
3.86244e-06
1.55809e-06
4.03611e-06
1.39433e-06
4.3407e-06
1.26209e-06
4.86495e-06
1.20944e-06
1.30375e-06
5.7216e-06
-1.14102e-06
1.59957e-05
-2.10992e-06
1.49684e-05
-2.71779e-06
1.30515e-05
-2.93982e-06
1.08362e-05
-2.7824e-06
8.50901e-06
-2.29647e-06
6.28113e-06
-1.58009e-06
4.39317e-06
-7.51409e-07
3.02218e-06
9.15549e-08
2.19134e-06
8.72773e-07
1.81969e-06
1.54371e-06
1.75753e-06
2.08021e-06
1.84657e-06
2.48074e-06
1.96565e-06
2.76714e-06
2.03048e-06
2.96523e-06
2.02109e-06
3.10571e-06
1.93779e-06
3.21231e-06
1.8041e-06
3.30967e-06
1.636e-06
3.42412e-06
1.44356e-06
3.59054e-06
1.22797e-06
3.85485e-06
9.97879e-07
4.26882e-06
7.95238e-07
6.91194e-07
4.88103e-06
-1.26342e-06
1.72594e-05
-2.33527e-06
1.60404e-05
-3.0196e-06
1.37359e-05
-3.2852e-06
1.11019e-05
-3.13875e-06
8.36262e-06
-2.6431e-06
5.78553e-06
-1.91601e-06
3.66612e-06
-1.08686e-06
2.19304e-06
-2.41199e-07
1.34569e-06
5.45824e-07
1.03265e-06
1.23038e-06
1.07294e-06
1.78018e-06
1.29671e-06
2.19127e-06
1.55449e-06
2.47166e-06
1.75001e-06
2.64915e-06
1.8435e-06
2.76312e-06
1.82372e-06
2.84409e-06
1.72301e-06
2.91476e-06
1.56521e-06
3.00385e-06
1.35441e-06
3.13438e-06
1.09744e-06
3.34135e-06
7.90847e-07
3.66051e-06
4.76256e-07
2.33715e-07
4.11753e-06
-1.37354e-06
1.86328e-05
-2.53632e-06
1.72032e-05
-3.28608e-06
1.44857e-05
-3.58609e-06
1.14019e-05
-3.44264e-06
8.21923e-06
-2.92966e-06
5.27258e-06
-2.20074e-06
2.93723e-06
-1.38868e-06
1.38099e-06
-5.58169e-07
5.15169e-07
2.30323e-07
2.44139e-07
9.22324e-07
3.809e-07
1.49076e-06
7.28216e-07
1.92032e-06
1.12486e-06
2.20824e-06
1.462e-06
2.38246e-06
1.66918e-06
2.47427e-06
1.73179e-06
2.524e-06
1.67316e-06
2.56291e-06
1.52618e-06
2.61019e-06
1.30704e-06
2.69103e-06
1.01662e-06
2.8274e-06
6.54501e-07
3.05001e-06
2.53461e-07
-9.48266e-08
3.37812e-06
-1.46905e-06
2.01021e-05
-2.71215e-06
1.84464e-05
-3.52149e-06
1.52951e-05
-3.84909e-06
1.17296e-05
-3.70568e-06
8.07588e-06
-3.16561e-06
4.73254e-06
-2.44441e-06
2.21605e-06
-1.66808e-06
6.04666e-07
-8.65709e-07
-2.87217e-07
-9.74975e-08
-5.24098e-07
5.92755e-07
-3.09397e-07
1.17881e-06
1.42104e-07
1.63502e-06
6.6858e-07
1.9503e-06
1.14663e-06
2.13364e-06
1.48574e-06
2.21692e-06
1.6484e-06
2.2424e-06
1.64756e-06
2.24504e-06
1.52342e-06
2.24874e-06
1.30326e-06
2.27176e-06
9.93582e-07
2.33409e-06
5.92079e-07
2.45831e-06
1.29282e-07
-3.08195e-07
2.67121e-06
-1.53225e-06
2.16344e-05
-2.84231e-06
1.97566e-05
-3.70329e-06
1.61562e-05
-4.0558e-06
1.20822e-05
-3.90911e-06
7.92925e-06
-3.3754e-06
4.19887e-06
-2.6608e-06
1.50147e-06
-1.92355e-06
-1.32583e-07
-1.15881e-06
-1.05197e-06
-4.26324e-07
-1.25661e-06
2.42114e-07
-9.77875e-07
8.30496e-07
-4.46334e-07
1.3146e-06
1.84408e-07
1.66753e-06
7.93614e-07
1.88016e-06
1.27301e-06
1.97135e-06
1.5571e-06
1.98319e-06
1.63562e-06
1.95519e-06
1.55131e-06
1.91653e-06
1.34183e-06
1.88492e-06
1.02518e-06
1.87668e-06
6.00311e-07
1.91398e-06
9.1883e-08
-4.13934e-07
2.0193e-06
-1.52078e-06
2.31554e-05
-2.86097e-06
2.10969e-05
-3.75119e-06
1.70465e-05
-4.1289e-06
1.24599e-05
-4.01272e-06
7.81313e-06
-3.52955e-06
3.71573e-06
-2.85204e-06
8.23985e-07
-2.12333e-06
-8.61282e-07
-1.40182e-06
-1.77348e-06
-7.27704e-07
-1.93074e-06
-1.09017e-07
-1.59659e-06
4.54143e-07
-1.00954e-06
9.48947e-07
-3.10456e-07
1.34176e-06
4.00727e-07
1.59941e-06
1.01528e-06
1.72005e-06
1.43636e-06
1.73367e-06
1.6219e-06
1.68734e-06
1.59754e-06
1.6141e-06
1.41501e-06
1.53438e-06
1.1049e-06
1.46387e-06
6.7078e-07
1.42287e-06
1.32882e-07
-4.25571e-07
1.43421e-06
-1.39878e-06
2.45543e-05
-2.69873e-06
2.2397e-05
-3.58418e-06
1.79321e-05
-3.98654e-06
1.28624e-05
-3.92672e-06
7.75339e-06
-3.51901e-06
3.30807e-06
-2.89055e-06
1.95564e-07
-2.18041e-06
-1.57139e-06
-1.53302e-06
-2.42086e-06
-9.548e-07
-2.50896e-06
-4.24365e-07
-2.12705e-06
7.72031e-08
-1.51114e-06
5.50415e-07
-7.83712e-07
9.66834e-07
-1.5748e-08
1.27695e-06
7.051e-07
1.4464e-06
1.26684e-06
1.48502e-06
1.5832e-06
1.43445e-06
1.64804e-06
1.33785e-06
1.51155e-06
1.2213e-06
1.22145e-06
1.10072e-06
7.91361e-07
9.96419e-07
2.3719e-07
-3.61473e-07
9.31985e-07
-1.15487e-06
2.57094e-05
-2.3268e-06
2.35692e-05
-3.15989e-06
1.87653e-05
-3.56659e-06
1.32692e-05
-3.59103e-06
7.77792e-06
-3.21976e-06
2.93687e-06
-2.62868e-06
-3.95455e-07
-2.01325e-06
-2.18679e-06
-1.49803e-06
-2.93605e-06
-1.06316e-06
-2.94383e-06
-6.63656e-07
-2.52655e-06
-2.64475e-07
-1.91033e-06
1.46456e-07
-1.19467e-06
5.541e-07
-4.23426e-07
9.05323e-07
3.53833e-07
1.13841e-06
1.0337e-06
1.22556e-06
1.496e-06
1.19294e-06
1.6806e-06
1.08882e-06
1.61565e-06
9.47506e-07
1.36279e-06
7.90066e-07
9.48807e-07
6.3481e-07
3.92393e-07
-2.36345e-07
5.09484e-07
-8.03426e-07
2.6513e-05
-1.75839e-06
2.45243e-05
-2.46519e-06
1.94723e-05
-2.84715e-06
1.36513e-05
-2.90528e-06
7.83617e-06
-2.55087e-06
2.58256e-06
-2.04332e-06
-9.02927e-07
-1.60682e-06
-2.62323e-06
-1.28077e-06
-3.26205e-06
-1.03032e-06
-3.19425e-06
-7.97189e-07
-2.75966e-06
-5.35674e-07
-2.17184e-06
-2.24474e-07
-1.50586e-06
1.31221e-07
-7.79131e-07
4.93786e-07
-8.75111e-09
7.86917e-07
7.40539e-07
9.4296e-07
1.33992e-06
9.54419e-07
1.66911e-06
8.61548e-07
1.70851e-06
7.12229e-07
1.51214e-06
5.31581e-07
1.12945e-06
3.4304e-07
5.81019e-07
-6.65234e-08
1.72929e-07
-3.76604e-07
2.68899e-05
-1.02693e-06
2.51749e-05
-1.54189e-06
1.99875e-05
-1.84225e-06
1.39519e-05
-1.82632e-06
7.82038e-06
-1.50077e-06
2.25712e-06
-1.2027e-06
-1.2009e-06
-1.00486e-06
-2.821e-06
-9.04419e-07
-3.36243e-06
-8.60965e-07
-3.23765e-06
-8.12913e-07
-2.80767e-06
-7.1098e-07
-2.27374e-06
-5.291e-07
-1.68772e-06
-2.62303e-07
-1.04591e-06
6.73359e-08
-3.38386e-07
3.93393e-07
4.1448e-07
6.28255e-07
1.10505e-06
7.09585e-07
1.58777e-06
6.52445e-07
1.76565e-06
5.10276e-07
1.65436e-06
3.20938e-07
1.31883e-06
1.11156e-07
7.90715e-07
1.33326e-07
-8.87884e-08
6.80534e-08
2.68221e-05
-2.12465e-07
2.54556e-05
-4.81784e-07
2.0257e-05
-5.83659e-07
1.40539e-05
-3.77515e-07
7.61438e-06
-1.98111e-07
2.07784e-06
-1.9919e-07
-1.19972e-06
-2.77882e-07
-2.74221e-06
-4.1757e-07
-3.22266e-06
-5.83309e-07
-3.07184e-06
-7.18141e-07
-2.67278e-06
-7.78165e-07
-2.21366e-06
-7.38755e-07
-1.72709e-06
-5.88937e-07
-1.1957e-06
-3.35636e-07
-5.91661e-07
-1.81475e-08
9.70088e-08
2.76602e-07
8.10315e-07
4.44415e-07
1.41996e-06
4.49354e-07
1.76074e-06
3.32381e-07
1.77137e-06
1.49964e-07
1.50126e-06
-6.432e-08
1.00516e-06
3.49098e-07
-2.80303e-07
4.82178e-07
2.63402e-05
5.93995e-07
2.5344e-05
6.15195e-07
2.0236e-05
7.80294e-07
1.3889e-05
1.0716e-06
7.32321e-06
1.05199e-06
2.09758e-06
8.42761e-07
-9.90372e-07
5.03038e-07
-2.40239e-06
1.05317e-07
-2.82485e-06
-2.47064e-07
-2.71939e-06
-5.40524e-07
-2.37925e-06
-7.42301e-07
-2.01182e-06
-8.37126e-07
-1.63221e-06
-8.13933e-07
-1.21884e-06
-6.67401e-07
-7.38152e-07
-4.08656e-07
-1.61704e-07
-1.02029e-07
5.03713e-07
1.4672e-07
1.17123e-06
2.40595e-07
1.66688e-06
1.7388e-07
1.83815e-06
1.21395e-08
1.66307e-06
-1.9868e-07
1.21587e-06
5.68811e-07
-4.18399e-07
7.80864e-07
2.55595e-05
1.2162e-06
2.49089e-05
1.52344e-06
1.99289e-05
1.94587e-06
1.34667e-05
2.26328e-06
7.00594e-06
2.15951e-06
2.20148e-06
1.75906e-06
-5.89812e-07
1.20136e-06
-1.8446e-06
6.04259e-07
-2.22766e-06
7.69207e-08
-2.19197e-06
-3.26825e-07
-1.97544e-06
-6.27709e-07