/*--------------------------------*- C++ -*----------------------------------*\
| =========                 |                                                 |
| \\      /  F ield         | OpenFOAM: The Open Source CFD Toolbox           |
|  \\    /   O peration     | Version:  2312                                  |
|   \\  /    A nd           | Website:  www.openfoam.com                      |
|    \\/     M anipulation  |                                                 |
\*---------------------------------------------------------------------------*/
FoamFile
{
    version     2.0;
    format      ascii;
    arch        "LSB;label=32;scalar=64";
    class       volVectorField;
    location    "4.4";
    object      U;
}
// * * * * * * * * * * * * * * * * * * * * * * * * * * * * * * * * * * * * * //

dimensions      [0 1 -1 0 0 0 0];

internalField   nonuniform List<vector> 
2268
(
(0.0168128 -0.00917436 0)
(0.0366976 -0.00561742 0)
(0.0552958 -0.00454444 0)
(0.0722544 -0.00380247 0)
(0.0872864 -0.003179 0)
(0.09983 -0.00254167 0)
(0.109587 -0.00188012 0)
(0.116558 -0.0012085 0)
(0.120769 -0.000499415 0)
(0.121971 0.00026085 0)
(0.119858 0.00103375 0)
(0.114539 0.00170782 0)
(0.106424 0.00227626 0)
(0.0959962 0.00274431 0)
(0.0839005 0.00302781 0)
(0.0709614 0.00312649 0)
(0.0579278 0.00309337 0)
(0.0452413 0.00294827 0)
(0.033484 0.00262655 0)
(0.0231093 0.00227794 0)
(0.0144819 0.0019116 0)
(0.00691563 0.00176253 0)
(-0.00161354 -3.13032e-05 0)
(0.00964199 -0.0179371 0)
(0.0301169 -0.0138471 0)
(0.0484025 -0.0126903 0)
(0.0657502 -0.0114335 0)
(0.0813047 -0.00990614 0)
(0.0944212 -0.00803924 0)
(0.10477 -0.00607659 0)
(0.112329 -0.00418345 0)
(0.11712 -0.00212636 0)
(0.118841 0.00015768 0)
(0.117082 0.00252377 0)
(0.111977 0.00467584 0)
(0.104031 0.00650119 0)
(0.0937326 0.00798513 0)
(0.0817498 0.00889838 0)
(0.06897 0.00922772 0)
(0.0561631 0.00911026 0)
(0.0437275 0.00867688 0)
(0.0323119 0.00779373 0)
(0.0224261 0.00678072 0)
(0.0146498 0.00567991 0)
(0.00798671 0.00559043 0)
(0.000662212 0.00263553 0)
(0.00754696 -0.0261134 0)
(0.0274725 -0.0228209 0)
(0.0451702 -0.0211622 0)
(0.0624273 -0.0193104 0)
(0.0780164 -0.0168853 0)
(0.0911566 -0.0137525 0)
(0.101557 -0.0104506 0)
(0.109345 -0.00729441 0)
(0.114536 -0.00373679 0)
(0.116633 0.000290405 0)
(0.115075 0.00446348 0)
(0.109989 0.00810784 0)
(0.102012 0.0111135 0)
(0.0916643 0.0135045 0)
(0.0796546 0.0148748 0)
(0.0669801 0.0152688 0)
(0.0544803 0.0149007 0)
(0.0424468 0.0139924 0)
(0.0315269 0.0122988 0)
(0.0222498 0.0103592 0)
(0.0154965 0.0082499 0)
(0.00983467 0.00776415 0)
(0.00415172 0.00384214 0)
(0.00778923 -0.0339996 0)
(0.0276369 -0.0312835 0)
(0.0451796 -0.0289672 0)
(0.0622525 -0.0264728 0)
(0.077629 -0.0231297 0)
(0.0904274 -0.0190483 0)
(0.100483 -0.0148248 0)
(0.108239 -0.0106548 0)
(0.113692 -0.00582578 0)
(0.116023 -0.000239659 0)
(0.114303 0.00566937 0)
(0.108712 0.0109085 0)
(0.100256 0.0153722 0)
(0.0894654 0.0190763 0)
(0.0772059 0.0213002 0)
(0.0646587 0.0220399 0)
(0.0527093 0.021626 0)
(0.0415269 0.0205539 0)
(0.0316421 0.0181627 0)
(0.0232546 0.0153453 0)
(0.0173576 0.0123738 0)
(0.0115927 0.0116172 0)
(0.00778124 0.0103758 0)
(0.00982919 -0.0446598 0)
(0.0303963 -0.0418706 0)
(0.0483412 -0.0385402 0)
(0.065285 -0.035095 0)
(0.0804422 -0.0303379 0)
(0.0932814 -0.0241286 0)
(0.103348 -0.0184114 0)
(0.111051 -0.0135231 0)
(0.116547 -0.00749949 0)
(0.118779 0.000382743 0)
(0.116373 0.00868929 0)
(0.109659 0.01539 0)
(0.0999045 0.0205604 0)
(0.0874939 0.0243488 0)
(0.0738149 0.0256729 0)
(0.059915 0.0253209 0)
(0.0475164 0.023238 0)
(0.0377632 0.0212328 0)
(0.0299671 0.0179286 0)
(0.0232737 0.0145056 0)
(0.0179368 0.0110599 0)
(0.0101582 0.00946179 0)
(0.00937844 0.0102995 0)
(0.0126393 -0.053727 0)
(0.0344443 -0.0505652 0)
(0.0531292 -0.0465631 0)
(0.0695441 -0.042272 0)
(0.0837819 -0.0373797 0)
(0.0976192 -0.030797 0)
(0.109215 -0.0234894 0)
(0.116063 -0.0164772 0)
(0.117438 -0.00847839 0)
(0.114611 0.000609397 0)
(0.109146 0.00953409 0)
(0.101891 0.0164178 0)
(0.0932912 0.0223677 0)
(0.0828899 0.0272071 0)
(0.0717529 0.0292288 0)
(0.0612537 0.0301926 0)
(0.0508545 0.0275852 0)
(0.0427123 0.0256044 0)
(0.0367571 0.0221718 0)
(0.0307936 0.0191711 0)
(0.0231919 0.0166423 0)
(-0.000592161 0.0147142 0)
(-0.000720969 0.0193468 0)
(0.0145321 -0.0655013 0)
(0.0377143 -0.0598338 0)
(0.0575444 -0.0533021 0)
(0.0733202 -0.0457077 0)
(0.0844373 -0.0375367 0)
(0.0947235 -0.0289728 0)
(0.108313 -0.0216056 0)
(0.122298 -0.0143732 0)
(0.134207 -0.00588949 0)
(0.140488 0.00331655 0)
(0.139917 0.012961 0)
(0.13375 0.0219446 0)
(0.120981 0.0308189 0)
(0.102422 0.0395263 0)
(0.0810064 0.0436479 0)
(0.0634965 0.0441187 0)
(0.0523069 0.0419425 0)
(0.0424132 0.037439 0)
(0.0373747 0.0312194 0)
(0.0309947 0.0291822 0)
(0.0208989 0.0318408 0)
(-0.0204329 0.0293642 0)
(-0.0171265 0.00315173 0)
(0.0155928 -0.0751211 0)
(0.0403495 -0.06793 0)
(0.0610935 -0.0611702 0)
(0.0746418 -0.0553932 0)
(0.0861131 -0.0512233 0)
(0.105556 -0.0490758 0)
(0.1272 -0.0429381 0)
(0.135121 -0.031399 0)
(0.112059 -0.0129127 0)
(0.0705906 0.00383021 0)
(0.0469056 0.0164179 0)
(0.0454979 0.0284377 0)
(0.0452181 0.0387357 0)
(0.0458384 0.0457976 0)
(0.0488283 0.0464571 0)
(0.0525052 0.0410405 0)
(0.05628 0.0379391 0)
(0.0613601 0.0312094 0)
(0.0626879 0.0276332 0)
(0.0570169 0.0278663 0)
(0.050144 0.0332309 0)
(0.0341468 0.0365182 0)
(0.0449546 0.00860135 0)
(-0.0115893 0.00777248 0)
(-0.020679 0.00489912 0)
(-0.0351597 0.00702212 0)
(-0.0599949 0.00753856 0)
(-0.0869744 0.00589358 0)
(-0.108645 0.0034419 0)
(-0.118622 0.000146868 0)
(-0.114605 -0.00275024 0)
(-0.0997717 -0.00495377 0)
(-0.0796926 -0.00582864 0)
(-0.0595012 -0.00602547 0)
(-0.0429283 -0.00497866 0)
(-0.0327437 -0.00318022 0)
(-0.0283646 -0.00216656 0)
(-0.0250859 -0.0016534 0)
(-0.0212834 -0.0020351 0)
(-0.0151968 -0.00228199 0)
(-0.00760696 -0.00130451 0)
(-0.000642436 -7.33118e-05 0)
(0.00044845 0.00597673 0)
(-0.00558076 0.00383078 0)
(-0.0242929 0.0111955 0)
(-0.0472727 0.0162025 0)
(-0.07459 0.0149983 0)
(-0.0975234 0.0113235 0)
(-0.109614 0.00496981 0)
(-0.106415 -0.00479841 0)
(-0.0907456 -0.0118408 0)
(-0.0705882 -0.0130259 0)
(-0.0522519 -0.0113165 0)
(-0.0403077 -0.0083506 0)
(-0.0335908 -0.00346966 0)
(-0.0325344 -0.000686288 0)
(-0.031851 -0.000467314 0)
(-0.0299784 -0.00278011 0)
(-0.0238329 -0.00451875 0)
(-0.0137117 -0.00473628 0)
(-0.00243652 -0.00346603 0)
(-0.0107768 0.00934522 0)
(-0.0175621 0.0153632 0)
(-0.0412051 0.0206066 0)
(-0.0556913 0.0251482 0)
(-0.0729538 0.0233334 0)
(-0.0933431 0.0164677 0)
(-0.11266 0.0028713 0)
(-0.113056 -0.0146173 0)
(-0.0849118 -0.0233369 0)
(-0.0684137 -0.0230849 0)
(-0.0576967 -0.0179421 0)
(-0.052173 -0.0130752 0)
(-0.0486479 -0.00734489 0)
(-0.0477452 -0.00364439 0)
(-0.0465519 -0.0033785 0)
(-0.0439932 -0.00640662 0)
(-0.0417659 -0.00832545 0)
(-0.0350934 -0.00858877 0)
(-0.0144756 -0.00655146 0)
(-0.0340665 0.0214115 0)
(-0.0394314 0.0247482 0)
(-0.0756311 0.0296812 0)
(-0.0821191 0.032711 0)
(-0.0790399 0.0334516 0)
(-0.0743912 0.0301727 0)
(-0.0619522 0.0180015 0)
(-0.0282611 -0.0102276 0)
(-0.00312883 -0.030027 0)
(-0.0101286 -0.0240027 0)
(-0.0327305 -0.0113417 0)
(-0.0351742 -0.0112438 0)
(-0.0444158 -0.00192979 0)
(-0.0591612 0.00420536 0)
(-0.0439805 0.00301779 0)
(-0.0378764 0.000163958 0)
(-0.0418707 -0.00763693 0)
(-0.0275921 -0.0184656 0)
(-0.00691307 -0.0258587 0)
(-0.0702885 0.0362342 0)
(-0.119843 0.0450645 0)
(-0.15735 0.0388558 0)
(-0.140437 0.0219786 0)
(-0.0969996 0.0162931 0)
(-0.0575714 0.00951501 0)
(-0.0356273 -0.0110616 0)
(0.0230602 -0.035144 0)
(0.0691139 -0.042846 0)
(0.112334 -0.0124558 0)
(0.0242404 0.00682226 0)
(0.0140679 -0.0205744 0)
(-0.0128059 0.00669407 0)
(-0.0537478 -0.00437187 0)
(0.00327221 -0.0285382 0)
(0.0497419 -0.00730829 0)
(0.0818802 -0.0131126 0)
(0.092901 -0.0215082 0)
(0.0815931 -0.0127089 0)
(-0.0763859 0.0770362 0)
(-0.110781 0.0652129 0)
(-0.12974 0.037895 0)
(-0.0831987 0.00322229 0)
(-0.0326806 -0.00475532 0)
(-0.0150403 0.0081825 0)
(-0.0295288 -0.0161587 0)
(-0.0187206 -0.0592485 0)
(0.00985507 -0.068141 0)
(0.056975 -0.00803954 0)
(0.0516771 0.0268912 0)
(0.05787 -0.00957006 0)
(0.0601371 0.0221647 0)
(0.03209 0.013871 0)
(0.0421714 -0.0459533 0)
(0.0726913 -0.0285005 0)
(0.0921195 -0.0264736 0)
(0.0879887 -0.0179812 0)
(0.0724736 0.0312737 0)
(-0.0613925 0.107693 0)
(-0.0710838 0.0784805 0)
(-0.0867266 0.0284675 0)
(-0.0306283 -0.0238432 0)
(0.00503237 -0.023287 0)
(0.00788174 0.0127219 0)
(-0.0232954 -0.00827853 0)
(-0.0319252 -0.0577878 0)
(-0.0425003 -0.0777541 0)
(-0.00406799 -0.0168689 0)
(0.02335 0.0142486 0)
(0.0546482 -0.0158113 0)
(0.0663062 0.0195766 0)
(0.055799 0.0102141 0)
(0.0479438 -0.0479102 0)
(0.0570997 -0.0349296 0)
(0.0618343 -0.027137 0)
(0.0556163 -0.00597875 0)
(0.0623025 0.054181 0)
(-0.0479343 0.131184 0)
(-0.0238645 0.090529 0)
(-0.0247632 0.0229369 0)
(0.0131457 -0.0354666 0)
(0.0139692 -0.024915 0)
(-0.00782473 0.022228 0)
(-0.0341929 -0.00347193 0)
(-0.0466851 -0.0468461 0)
(-0.0826665 -0.0696726 0)
(-0.0664303 -0.03125 0)
(-0.0174029 -0.0127498 0)
(0.0306154 -0.0338449 0)
(0.059456 0.0187669 0)
(0.0523934 0.0147781 0)
(0.0402565 -0.0439984 0)
(0.0272842 -0.0296511 0)
(0.0184623 -0.0238015 0)
(-0.00360048 -0.00639151 0)
(0.0523884 0.0712313 0)
(0.00802236 -0.105654 0)
(0.0206538 -0.0971789 0)
(0.0328818 -0.0835709 0)
(0.0360944 -0.0686371 0)
(0.0243355 -0.0567151 0)
(0.0194732 -0.0531698 0)
(0.0206143 -0.0345035 0)
(0.0210371 -0.00293075 0)
(0.0244404 0.0192486 0)
(0.0325565 0.0203786 0)
(0.0425039 0.0207209 0)
(0.0473446 0.0266658 0)
(0.0503979 0.0343413 0)
(0.0558441 0.0393955 0)
(0.063981 0.0398676 0)
(0.0733757 0.0365978 0)
(0.0833358 0.0333678 0)
(0.0916312 0.0310247 0)
(0.0926845 0.033392 0)
(0.0868468 0.0369266 0)
(0.0794128 0.0404969 0)
(0.0751303 0.0405237 0)
(0.0676559 0.0345473 0)
(-0.00671469 -0.0980478 0)
(-0.0136436 -0.0862208 0)
(-0.0189357 -0.0616426 0)
(-0.0121867 -0.0398384 0)
(-0.000778356 -0.0450965 0)
(0.00816212 -0.0478094 0)
(0.0139927 -0.0430314 0)
(0.0213642 -0.0339414 0)
(0.0346014 -0.0196692 0)
(0.0494316 -0.00390651 0)
(0.0602601 0.00906885 0)
(0.0648389 0.0220471 0)
(0.0655071 0.0300628 0)
(0.067564 0.0318914 0)
(0.0743022 0.0275311 0)
(0.0849636 0.0216448 0)
(0.0936692 0.0172575 0)
(0.0931409 0.0218075 0)
(0.0831599 0.0313789 0)
(0.0713523 0.0376362 0)
(0.062928 0.0398113 0)
(0.0566853 0.0358903 0)
(0.0452815 0.0362512 0)
(-0.00907517 -0.0852825 0)
(-0.0156917 -0.082023 0)
(-0.0237722 -0.0780971 0)
(-0.0148643 -0.0731426 0)
(-0.00823596 -0.0666594 0)
(-0.00463037 -0.060984 0)
(0.000985362 -0.0483467 0)
(0.00716493 -0.0360899 0)
(0.0170752 -0.0255879 0)
(0.0304621 -0.0179454 0)
(0.0475813 -0.00539759 0)
(0.0498511 0.0154775 0)
(0.0456912 0.0278795 0)
(0.0388847 0.0296684 0)
(0.0327874 0.0240388 0)
(0.0215049 0.0213788 0)
(-0.00381777 0.0275674 0)
(-0.0230248 0.0443779 0)
(-0.0261033 0.0551312 0)
(-0.034059 0.051821 0)
(-0.0401586 0.0507642 0)
(-0.0500657 0.048797 0)
(-0.0628691 0.0601497 0)
(-0.0150284 -0.0693724 0)
(-0.0294311 -0.0662715 0)
(-0.0503424 -0.0665564 0)
(-0.0586408 -0.0657258 0)
(-0.0646954 -0.0635002 0)
(-0.0673113 -0.0624694 0)
(-0.0657767 -0.0550093 0)
(-0.0632956 -0.0467029 0)
(-0.065085 -0.0371775 0)
(-0.0782983 -0.0253402 0)
(-0.0944401 -0.000655172 0)
(-0.087532 0.0304041 0)
(-0.0949867 0.0424427 0)
(-0.11414 0.0486359 0)
(-0.144585 0.0528743 0)
(-0.186587 0.052152 0)
(-0.204713 0.0478281 0)
(-0.203175 0.0468809 0)
(-0.193946 0.051796 0)
(-0.194369 0.0520463 0)
(-0.195588 0.0544795 0)
(-0.198403 0.0601893 0)
(-0.198519 0.0720183 0)
(-0.0310072 -0.0364611 0)
(-0.0657132 -0.037683 0)
(-0.102742 -0.046618 0)
(-0.129705 -0.0519763 0)
(-0.152605 -0.0524767 0)
(-0.172947 -0.0477229 0)
(-0.194725 -0.0348349 0)
(-0.220234 -0.0182975 0)
(-0.244436 -0.00814568 0)
(-0.255497 -0.00863318 0)
(-0.255832 -0.000612622 0)
(-0.245113 0.0202853 0)
(-0.23613 0.0434738 0)
(-0.236197 0.0687575 0)
(-0.246245 0.0808865 0)
(-0.26278 0.0679156 0)
(-0.267901 0.0461654 0)
(-0.268808 0.0405587 0)
(-0.267507 0.0469139 0)
(-0.266544 0.0510057 0)
(-0.266967 0.0542268 0)
(-0.266724 0.0572064 0)
(-0.263953 0.0604422 0)
(-0.0380264 0.00400773 0)
(-0.0751955 -0.00200656 0)
(-0.115605 -0.0134018 0)
(-0.149918 -0.0227104 0)
(-0.179716 -0.0275993 0)
(-0.199542 -0.025726 0)
(-0.208994 -0.0175802 0)
(-0.211278 -0.00811897 0)
(-0.212549 -0.00133121 0)
(-0.218787 -0.000944642 0)
(-0.228298 0.00257962 0)
(-0.240292 0.0198953 0)
(-0.248866 0.0446547 0)
(-0.250933 0.0738317 0)
(-0.249814 0.0928698 0)
(-0.250984 0.0817248 0)
(-0.253904 0.0573214 0)
(-0.262457 0.0511547 0)
(-0.268918 0.0530693 0)
(-0.270924 0.0552033 0)
(-0.271198 0.0570591 0)
(-0.271093 0.05806 0)
(-0.269382 0.0548992 0)
(-0.0239421 0.0575622 0)
(-0.0666515 0.0406621 0)
(-0.120324 0.0227804 0)
(-0.158038 0.00104631 0)
(-0.180155 -0.0156511 0)
(-0.188872 -0.0250029 0)
(-0.18401 -0.0252813 0)
(-0.172528 -0.0210503 0)
(-0.167232 -0.0117912 0)
(-0.166882 0.000273756 0)
(-0.178761 0.0134904 0)
(-0.196321 0.0288734 0)
(-0.213906 0.046879 0)
(-0.224036 0.0653025 0)
(-0.225231 0.0792739 0)
(-0.224038 0.0742103 0)
(-0.226471 0.056205 0)
(-0.235422 0.0512938 0)
(-0.240938 0.0503466 0)
(-0.241227 0.0500752 0)
(-0.239737 0.0513396 0)
(-0.238315 0.0531279 0)
(-0.237443 0.050266 0)
(-0.0280245 0.104077 0)
(0.00433008 0.121932 0)
(-0.0689266 0.120123 0)
(-0.134483 0.0650766 0)
(-0.238007 0.0402253 0)
(-0.324866 -0.0115922 0)
(-0.336501 -0.0251927 0)
(-0.414873 -0.00811732 0)
(-0.49259 0.0160128 0)
(-0.415203 0.0261968 0)
(-0.341777 0.0436756 0)
(-0.298292 0.0567763 0)
(-0.269316 0.0693199 0)
(-0.249302 0.079265 0)
(-0.233916 0.085277 0)
(-0.22516 0.0808443 0)
(-0.224246 0.0683868 0)
(-0.226155 0.0611548 0)
(-0.223022 0.0552178 0)
(-0.216405 0.0521615 0)
(-0.209619 0.0517306 0)
(-0.203795 0.054309 0)
(-0.200046 0.0541874 0)
(-0.0174558 0.0626938 0)
(0.107794 0.080248 0)
(0.105801 0.142434 0)
(0.0689428 0.135787 0)
(0.0163722 0.153858 0)
(-0.0416106 0.0798716 0)
(-0.0956435 0.032667 0)
(-0.22993 0.0419782 0)
(-0.286125 0.0309385 0)
(-0.23177 -0.239706 0)
(-0.328633 -0.126051 0)
(-0.474805 -0.017849 0)
(-0.488755 0.0162559 0)
(-0.416646 0.0536389 0)
(-0.354287 0.0744807 0)
(-0.315863 0.0748573 0)
(-0.292253 0.0635571 0)
(-0.275137 0.055637 0)
(-0.255967 0.0490389 0)
(-0.237004 0.0470635 0)
(-0.221341 0.0475071 0)
(-0.210406 0.0512566 0)
(-0.202682 0.0528697 0)
(-0.0360876 0.0136603 0)
(0.11298 0.0229751 0)
(-0.0168571 0.220436 0)
(0.0182637 0.187526 0)
(0.0189854 0.139123 0)
(0.0238485 0.101009 0)
(0.0398554 0.131916 0)
(0.00234243 0.149779 0)
(0.0455343 0.121405 0)
(0.0258674 0.111363 0)
(-0.0590193 0.167366 0)
(-0.104099 0.164701 0)
(-0.161508 0.0467558 0)
(-0.238964 -0.0946589 0)
(-0.275333 -0.111232 0)
(-0.281486 -0.0512818 0)
(-0.288739 -0.0164697 0)
(-0.310365 0.00854989 0)
(-0.284675 -0.000594857 0)
(-0.249745 0.00442342 0)
(-0.231633 0.00231645 0)
(-0.225378 0.0127147 0)
(-0.214466 0.0169955 0)
(-0.0782815 -0.0820911 0)
(-0.0364852 0.0887637 0)
(-0.0612153 0.193129 0)
(0.0221062 0.142356 0)
(0.0360442 0.117202 0)
(0.0285206 0.10046 0)
(0.0261797 0.105591 0)
(0.0417422 0.0719075 0)
(0.0539306 0.0176011 0)
(0.0479753 -0.00467336 0)
(0.0391025 0.0873213 0)
(0.0342786 0.156894 0)
(0.0374204 0.162979 0)
(0.0226244 0.140225 0)
(-0.000348165 0.137682 0)
(-0.0399872 0.111705 0)
(-0.0454285 0.0846058 0)
(-0.0694271 0.070613 0)
(0.0261357 -0.0230454 0)
(0.037823 -0.030308 0)
(-0.0110494 0.0331817 0)
(-0.02716 0.0659441 0)
(-0.100872 0.101275 0)
(-0.0714682 0.0295245 0)
(-0.0456209 0.0858419 0)
(-0.0273355 0.125159 0)
(0.0243786 0.105648 0)
(0.0321084 0.103471 0)
(0.0287129 0.107516 0)
(0.0281505 0.108439 0)
(0.0431541 0.0694476 0)
(0.0466541 0.0559733 0)
(0.035629 0.0614108 0)
(0.0374671 0.0868896 0)
(0.0708454 0.113618 0)
(0.112391 0.112959 0)
(0.139391 0.0813321 0)
(0.138244 0.072393 0)
(0.126157 0.0656464 0)
(0.122136 0.05647 0)
(0.136229 -0.0142903 0)
(0.141562 -0.0430627 0)
(0.110332 0.0195413 0)
(0.0938992 0.0521587 0)
(0.1026 0.0839077 0)
(0.10097 0.118001 0)
(-0.022936 0.0684484 0)
(-0.00723499 0.0700413 0)
(0.000292097 0.0920415 0)
(0.0214646 0.0936519 0)
(0.0274356 0.10209 0)
(0.0290664 0.109678 0)
(0.0373949 0.0958697 0)
(0.046124 0.058233 0)
(0.0436162 0.0462765 0)
(0.0372665 0.0533895 0)
(0.0414296 0.0696993 0)
(0.0695123 0.0726733 0)
(0.106803 0.0680949 0)
(0.137588 0.0686679 0)
(0.155504 0.0712466 0)
(0.16483 0.0670565 0)
(0.171422 0.0545281 0)
(0.170357 0.0306925 0)
(0.160062 0.00438084 0)
(0.156468 0.016722 0)
(0.17281 0.0411122 0)
(0.193464 0.0724387 0)
(0.208823 0.0908305 0)
(0.00348454 0.0776612 0)
(0.00760421 0.063241 0)
(0.00975669 0.0774229 0)
(0.0186375 0.0861617 0)
(0.0253638 0.0949866 0)
(0.034696 0.100171 0)
(0.0469375 0.086478 0)
(0.0521981 0.0646997 0)
(0.0485384 0.0568472 0)
(0.0451659 0.0576298 0)
(0.0504913 0.0560669 0)
(0.0652806 0.0478023 0)
(0.0804615 0.0429476 0)
(0.0962984 0.0453211 0)
(0.114795 0.0577293 0)
(0.125468 0.0593574 0)
(0.130118 0.0422817 0)
(0.134462 0.0063349 0)
(0.145335 -0.0192063 0)
(0.164254 -0.00987754 0)
(0.183791 0.018811 0)
(0.196888 0.0543829 0)
(0.200509 0.0794394 0)
(0.00616255 0.0678201 0)
(0.00881576 0.0622955 0)
(0.010225 0.0714136 0)
(0.0153951 0.0791522 0)
(0.0222834 0.0852713 0)
(0.0334182 0.0869229 0)
(0.0443723 0.0766689 0)
(0.0496129 0.0636212 0)
(0.0504548 0.0576395 0)
(0.0518115 0.0555305 0)
(0.0568269 0.0487418 0)
(0.0619043 0.0378206 0)
(0.0649513 0.0339035 0)
(0.068081 0.0345945 0)
(0.0762972 0.0448282 0)
(0.0864287 0.0507792 0)
(0.094616 0.036307 0)
(0.101517 0.00174656 0)
(0.106394 -0.0292222 0)
(0.118097 -0.0230165 0)
(0.132579 0.0140225 0)
(0.136873 0.0533829 0)
(0.130743 0.0803308 0)
(0.00303559 0.0628604 0)
(0.00616185 0.0616779 0)
(0.00741633 0.067826 0)
(0.0117043 0.0732268 0)
(0.0177692 0.0763883 0)
(0.0271323 0.0758258 0)
(0.0356957 0.0684342 0)
(0.040507 0.0600364 0)
(0.0433987 0.0550892 0)
(0.0472881 0.0511958 0)
(0.0526459 0.0437789 0)
(0.0550601 0.034657 0)
(0.0553056 0.0313963 0)
(0.0558685 0.0317023 0)
(0.0587019 0.0372338 0)
(0.0663353 0.0414964 0)
(0.0743179 0.0281137 0)
(0.0747204 -0.0030912 0)
(0.0669646 -0.0347318 0)
(0.061082 -0.0311646 0)
(0.070881 0.0146614 0)
(0.0720799 0.0618264 0)
(0.0598719 0.0983477 0)
(0.000926977 0.0606457 0)
(0.00342254 0.0603578 0)
(0.00428824 0.0650711 0)
(0.00813644 0.0684035 0)
(0.0130626 0.0694354 0)
(0.0201272 0.0677352 0)
(0.0265774 0.0621623 0)
(0.0309453 0.0560511 0)
(0.0346409 0.0512731 0)
(0.0389745 0.0464819 0)
(0.0433034 0.0399815 0)
(0.0449346 0.0332479 0)
(0.0452469 0.0301997 0)
(0.0466174 0.0301353 0)
(0.0500965 0.0321885 0)
(0.0572651 0.0329555 0)
(0.0648567 0.0235869 0)
(0.0646261 0.00496928 0)
(0.0498141 -0.0213798 0)
(0.031455 -0.0286369 0)
(0.0318918 0.0103847 0)
(0.0362241 0.0679903 0)
(0.027627 0.115411 0)
(-7.79777e-05 0.0596782 0)
(0.00141966 0.0594058 0)
(0.00174687 0.0629025 0)
(0.00499409 0.0644918 0)
(0.00895181 0.0641354 0)
(0.0143469 0.0617287 0)
(0.019435 0.0571582 0)
(0.0235619 0.0520761 0)
(0.0274462 0.0473318 0)
(0.0314502 0.042414 0)
(0.0348826 0.037062 0)
(0.0366819 0.0318754 0)
(0.0377639 0.0287619 0)
(0.0397375 0.0274859 0)
(0.0434518 0.027088 0)
(0.0494599 0.0255442 0)
(0.0554177 0.019323 0)
(0.0572846 0.00958006 0)
(0.0500145 -0.00356845 0)
(0.0315806 -0.0137763 0)
(0.0195106 0.00881116 0)
(0.0255793 0.0669034 0)
(0.0302373 0.121041 0)
(-0.000736383 0.0597384 0)
(-0.000100001 0.0591573 0)
(-0.000253176 0.061244 0)
(0.00226517 0.0613482 0)
(0.00551231 0.0599275 0)
(0.00983859 0.0569649 0)
(0.0141947 0.0527455 0)
(0.0182924 0.0480892 0)
(0.0222271 0.043542 0)
(0.0259742 0.0389704 0)
(0.0291073 0.0343529 0)
(0.0312159 0.0300943 0)
(0.0328184 0.0269671 0)
(0.034806 0.0248166 0)
(0.037777 0.0229438 0)
(0.0418106 0.020286 0)
(0.0455357 0.0155816 0)
(0.0469798 0.00987684 0)
(0.0445761 0.00445172 0)
(0.0357451 0.00113099 0)
(0.0240962 0.0126301 0)
(0.0280322 0.0575678 0)
(0.044639 0.110871 0)
(-0.00125561 0.0605825 0)
(-0.00139442 0.0595981 0)
(-0.00210265 0.0601556 0)
(-0.0003025 0.0589395 0)
(0.00230414 0.0564852 0)
(0.00590169 0.0528911 0)
(0.00986787 0.0485707 0)
(0.0139436 0.0440511 0)
(0.0179729 0.0396852 0)
(0.02171 0.0355211 0)
(0.0249008 0.0315631 0)
(0.0273751 0.0279848 0)
(0.0293407 0.0250601 0)
(0.0312696 0.022634 0)
(0.0334487 0.0202693 0)
(0.035794 0.0173694 0)
(0.0376193 0.0136023 0)
(0.0381319 0.00977063 0)
(0.0368994 0.00735268 0)
(0.033711 0.00815387 0)
(0.0296328 0.0169299 0)
(0.0334089 0.0450717 0)
(0.0544911 0.0889767 0)
(-0.0017253 0.0622288 0)
(-0.00266065 0.0607415 0)
(-0.00403082 0.0597651 0)
(-0.00299827 0.0572307 0)
(-0.00104098 0.0536441 0)
(0.00197944 0.0492904 0)
(0.00565052 0.0445774 0)
(0.00968829 0.0399584 0)
(0.0137853 0.0357192 0)
(0.0176541 0.0319168 0)
(0.0210405 0.0285453 0)
(0.0238104 0.0255559 0)
(0.0260824 0.0229927 0)
(0.028071 0.0207034 0)
(0.0298917 0.0184113 0)
(0.03143 0.0158164 0)
(0.032332 0.012873 0)
(0.0323171 0.0101138 0)
(0.0314538 0.00859731 0)
(0.0303913 0.00991099 0)
(0.0304824 0.0165694 0)
(0.0354154 0.0331299 0)
(0.0555077 0.0634671 0)
(-0.00219653 0.0647174 0)
(-0.00396628 0.0626498 0)
(-0.00608305 0.0601415 0)
(-0.00584496 0.0562061 0)
(-0.00451678 0.0513969 0)
(-0.00196078 0.046086 0)
(0.00147577 0.0407506 0)
(0.00548554 0.0358385 0)
(0.00967437 0.0316374 0)
(0.0136737 0.0281795 0)
(0.0172195 0.0253072 0)
(0.0201916 0.0228729 0)
(0.0226448 0.0207454 0)
(0.0246996 0.0187889 0)
(0.0264135 0.0168263 0)
(0.027712 0.0147142 0)
(0.0284166 0.0124793 0)
(0.0284372 0.0104542 0)
(0.0279518 0.00926835 0)
(0.0276374 0.00992094 0)
(0.028744 0.0137626 0)
(0.0335129 0.0229397 0)
(0.0491554 0.0405817 0)
(-0.00267598 0.0680742 0)
(-0.00528938 0.065368 0)
(-0.00817921 0.0612911 0)
(-0.00867329 0.0558613 0)
(-0.00787846 0.0496717 0)
(-0.00567199 0.0431974 0)
(-0.00236422 0.0370212 0)
(0.00166503 0.0316824 0)
(0.00596162 0.0274542 0)
(0.0100916 0.0242994 0)
(0.0137583 0.0219393 0)
(0.0168271 0.0200589 0)
(0.0193336 0.0184285 0)
(0.0213716 0.0168799 0)
(0.0230035 0.0153127 0)
(0.0242318 0.0136701 0)
(0.0249909 0.0119967 0)
(0.0252737 0.010486 0)
(0.025248 0.00947587 0)
(0.0253989 0.00949352 0)
(0.0265776 0.0112022 0)
(0.0302154 0.0155581 0)
(0.0398403 0.0240991 0)
(-0.00314494 0.0722913 0)
(-0.00656879 0.0688868 0)
(-0.0101856 0.0631717 0)
(-0.0113142 0.0561069 0)
(-0.0109392 0.0483423 0)
(-0.00894573 0.0405003 0)
(-0.00566713 0.0333141 0)
(-0.00155751 0.0274345 0)
(0.00285567 0.0231468 0)
(0.00711193 0.0203079 0)
(0.0108796 0.0184889 0)
(0.0140075 0.0172112 0)
(0.0164967 0.0161345 0)
(0.018445 0.0150497 0)
(0.0199561 0.0138816 0)
(0.0210972 0.0126322 0)
(0.0218961 0.0113568 0)
(0.0223995 0.010174 0)
(0.0227543 0.0092546 0)
(0.023277 0.00884025 0)
(0.0244784 0.00923919 0)
(0.0271665 0.0108943 0)
(0.0325278 0.0143871 0)
(-0.00358696 0.0773322 0)
(-0.00775806 0.0731486 0)
(-0.0120308 0.0656871 0)
(-0.0136767 0.0568098 0)
(-0.0136011 0.0472777 0)
(-0.011712 0.037884 0)
(-0.00839492 0.0295566 0)
(-0.00418508 0.023077 0)
(0.000334262 0.0187132 0)
(0.00470283 0.0162064 0)
(0.00856155 0.0149703 0)
(0.0117393 0.0143638 0)
(0.0142163 0.0139116 0)
(0.0160739 0.0133485 0)
(0.0174408 0.0125883 0)
(0.0184505 0.0116631 0)
(0.0191977 0.0106513 0)
(0.0197748 0.00963879 0)
(0.0203188 0.00871119 0)
(0.0210473 0.0079632 0)
(0.0222606 0.00754445 0)
(0.0244316 0.00773695 0)
(0.0278717 0.0088769 0)
(-0.00399598 0.0831326 0)
(-0.00884445 0.078075 0)
(-0.0136894 0.068738 0)
(-0.0157414 0.0578683 0)
(-0.0158656 0.0463761 0)
(-0.0140026 0.0352737 0)
(-0.010611 0.0257212 0)
(-0.00631988 0.0186228 0)
(-0.00173609 0.0141802 0)
(0.00269766 0.0120125 0)
(0.00664377 0.0113787 0)
(0.00989515 0.0114873 0)
(0.012388 0.0117321 0)
(0.0141858 0.0117621 0)
(0.0154331 0.0114498 0)
(0.0162955 0.0108258 0)
(0.0169223 0.0100004 0)
(0.0174372 0.00906614 0)
(0.0179779 0.00806319 0)
(0.0187049 0.00701977 0)
(0.0198201 0.00600895 0)
(0.0216102 0.00526843 0)
(0.0241695 0.0051501 0)
(-0.00436595 0.0896273 0)
(-0.00982191 0.0835896 0)
(-0.0151642 0.0722353 0)
(-0.0175352 0.0591948 0)
(-0.0177861 0.0455629 0)
(-0.0158935 0.0326231 0)
(-0.0124194 0.0218106 0)
(-0.00810195 0.0141218 0)
(-0.0035278 0.00959643 0)
(0.000918717 0.00774168 0)
(0.0049185 0.00770741 0)
(0.00825394 0.00855067 0)
(0.0108262 0.00954553 0)
(0.012643 0.0102398 0)
(0.0138155 0.010429 0)
(0.0145427 0.0101386 0)
(0.0150238 0.00948363 0)
(0.0153981 0.00858481 0)
(0.0158034 0.00749199 0)
(0.0163767 0.00619247 0)
(0.0172456 0.00472402 0)
(0.0186296 0.00329419 0)
(0.0205574 0.00231572 0)
(-0.0046989 0.0967478 0)
(-0.0106973 0.0896236 0)
(-0.0164737 0.0761089 0)
(-0.0191058 0.0607224 0)
(-0.0194353 0.0447847 0)
(-0.0174663 0.0299015 0)
(-0.0139135 0.0178627 0)
(-0.00965344 0.00966101 0)
(-0.00519031 0.00504276 0)
(-0.000792331 0.00345745 0)
(0.00322658 0.00397027 0)
(0.00664209 0.00552207 0)
(0.00932677 0.00729574 0)
(0.0112302 0.00871843 0)
(0.0124224 0.00949177 0)
(0.0130745 0.00959003 0)
(0.0134047 0.00913605 0)
(0.0136082 0.00828343 0)
(0.013819 0.00711559 0)
(0.0141485 0.00561465 0)
(0.0146991 0.00379045 0)
(0.0156283 0.0018323 0)
(0.0169756 0.000184439 0)
(-0.00498438 0.104411 0)
(-0.0114596 0.0961094 0)
(-0.0176251 0.0803057 0)
(-0.020485 0.0624039 0)
(-0.0208653 0.0439954 0)
(-0.0187751 0.0270487 0)
(-0.0151511 0.0139253 0)
(-0.0110357 0.00535515 0)
(-0.00676471 0.000599932 0)
(-0.00250935 -0.000767737 0)
(0.00143215 0.000198284 0)
(0.00489442 0.00238199 0)
(0.00772123 0.0048997 0)
(0.00979589 0.00710043 0)
(0.0110942 0.00855679 0)
(0.0117468 0.00913215 0)
(0.0119796 0.00894275 0)
(0.0120154 0.0081867 0)
(0.0120125 0.00698351 0)
(0.0120734 0.00534612 0)
(0.0122657 0.00326055 0)
(0.0127315 0.000905311 0)
(0.0135465 -0.00125953 0)
(-0.00513556 0.112528 0)
(-0.0120001 0.102972 0)
(-0.0185027 0.0847735 0)
(-0.0215625 0.0641884 0)
(-0.0219755 0.0431568 0)
(-0.019828 0.0240848 0)
(-0.0162458 0.0100236 0)
(-0.0122876 0.00124889 0)
(-0.00821583 -0.00366523 0)
(-0.00418617 -0.0048647 0)
(-0.000422325 -0.00351627 0)
(0.00297326 -0.000828271 0)
(0.00589371 0.00234014 0)
(0.00817694 0.00529919 0)
(0.00968355 0.0075062 0)
(0.0104446 0.00868005 0)
(0.0106544 0.00885812 0)
(0.010562 0.00826151 0)
(0.0103606 0.00708602 0)
(0.0101602 0.00538058 0)
(0.010018 0.00312883 0)
(0.010052 0.000483726 0)
(0.0103749 -0.00208602 0)
(-0.00499452 0.120828 0)
(-0.0120162 0.110121 0)
(-0.0187162 0.0894435 0)
(-0.0219118 0.0660694 0)
(-0.0224422 0.0423373 0)
(-0.0204504 0.0212517 0)
(-0.0171235 0.00619474 0)
(-0.0133046 -0.00276675 0)
(-0.00936346 -0.00774482 0)
(-0.00565234 -0.00872909 0)
(-0.00220909 -0.00705181 0)
(0.000966566 -0.00399032 0)
(0.00384214 -0.000345337 0)
(0.00629094 0.00327221 0)
(0.00806896 0.00624893 0)
(0.00905542 0.00813445 0)
(0.00934894 0.00881328 0)
(0.00919986 0.00848021 0)
(0.00884845 0.00740163 0)
(0.00842614 0.00569426 0)
(0.00798397 0.00335677 0)
(0.00763853 0.000508458 0)
(0.00753856 -0.00238693 0)
(-0.00446259 0.128808 0)
(-0.0112145 0.117294 0)
(-0.0178353 0.0942246 0)
(-0.0210863 0.0681106 0)
(-0.0218064 0.0417983 0)
(-0.0201121 0.0187774 0)
(-0.0171287 0.00260351 0)
(-0.0134948 -0.0067624 0)
(-0.00983098 -0.0115288 0)
(-0.0066248 -0.0121816 0)
(-0.00370666 -0.0102158 0)
(-0.000950863 -0.0069199 0)
(0.00168847 -0.00300815 0)
(0.00414861 0.00105435 0)
(0.00618014 0.00471346 0)
(0.00748471 0.00737444 0)
(0.00799352 0.0087035 0)
(0.00789036 0.00877277 0)
(0.00745129 0.00788147 0)
(0.00685957 0.00624152 0)
(0.0061845 0.00389049 0)
(0.00552745 0.0009226 0)
(0.00508018 -0.00222128 0)
(-0.00353432 0.135838 0)
(-0.00948222 0.124058 0)
(-0.0156507 0.0989046 0)
(-0.0187973 0.0702918 0)
(-0.0197529 0.0416478 0)
(-0.0182945 0.0166681 0)
(-0.015494 -0.000783776 0)
(-0.0122608 -0.0104415 0)
(-0.00927288 -0.0147393 0)
(-0.00684626 -0.0149693 0)
(-0.0046861 -0.0127712 0)
(-0.0025703 -0.00939489 0)
(-0.000384529 -0.00544182 0)
(0.0018725 -0.00121585 0)
(0.0040166 0.00290629 0)
(0.00566338 0.00629918 0)
(0.00651569 0.00839701 0)
(0.00659186 0.0090284 0)
(0.00616226 0.00844669 0)
(0.00547607 0.00695355 0)
(0.00463319 0.00466054 0)
(0.00374495 0.00164797 0)
(0.00301809 -0.00168494 0)
(-0.00228425 0.141281 0)
(-0.00690111 0.129927 0)
(-0.012167 0.103164 0)
(-0.0149149 0.0724761 0)
(-0.0159855 0.0418573 0)
(-0.0144495 0.0146965 0)
(-0.011986 -0.00385237 0)
(-0.00953713 -0.0133278 0)
(-0.00761131 -0.0170401 0)
(-0.00621293 -0.0168368 0)
(-0.00500243 -0.0144943 0)
(-0.00371141 -0.0111995 0)
(-0.0021758 -0.00742106 0)
(-0.000342753 -0.00331946 0)
(0.00168467 0.000934635 0)
(0.00357537 0.00486896 0)
(0.00484076 0.007758 0)
(0.00524815 0.00912014 0)
(0.00495234 0.00900706 0)
(0.00425508 0.00775852 0)
(0.00332798 0.00559195 0)
(0.00227415 0.00259632 0)
(0.00134658 -0.000865319 0)
(-0.000826301 0.144628 0)
(-0.00365286 0.13442 0)
(-0.00758954 0.106612 0)
(-0.00959713 0.0744294 0)
(-0.0104112 0.0420981 0)
(-0.00838685 0.0128747 0)
(-0.00686728 -0.00606376 0)
(-0.00564635 -0.0150482 0)
(-0.00502601 -0.0181811 0)
(-0.00479776 -0.0176105 0)
(-0.00462983 -0.0152346 0)
(-0.00426718 -0.012173 0)
(-0.00351242 -0.00876138 0)
(-0.00228465 -0.00502686 0)
(-0.000616031 -0.000981274 0)
(0.0012856 0.0031434 0)
(0.00292474 0.00669806 0)
(0.00379735 0.0089073 0)
(0.00378764 0.00944851 0)
(0.00318395 0.00857335 0)
(0.0022419 0.00661109 0)
(0.00110616 0.00368925 0)
(5.01976e-05 0.000151331 0)
(0.000598493 0.145559 0)
(-0.000107249 0.137255 0)
(-0.00233468 0.10902 0)
(-0.0032609 0.0759071 0)
(-0.00298763 0.0418798 0)
(-0.000794239 0.0112172 0)
(-0.000899535 -0.00698426 0)
(-0.00103226 -0.015379 0)
(-0.00182999 -0.0180286 0)
(-0.00281101 -0.017225 0)
(-0.00365887 -0.0149487 0)
(-0.00421944 -0.012248 0)
(-0.00428048 -0.00934156 0)
(-0.00376429 -0.0061599 0)
(-0.00264533 -0.002587 0)
(-0.00101074 0.00134329 0)
(0.000801151 0.00524121 0)
(0.00216 0.00825907 0)
(0.00259465 0.0096332 0)
(0.00221383 0.00930365 0)
(0.00133912 0.00763406 0)
(0.000179762 0.00485051 0)
(-0.000926953 0.00128759 0)
(0.00176872 0.144042 0)
(0.00313147 0.13772 0)
(0.00284115 0.109915 0)
(0.00325782 0.0760805 0)
(0.00519845 0.0405809 0)
(0.00669547 0.011374 0)
(0.00550122 -0.00586947 0)
(0.00385245 -0.0140082 0)
(0.00164746 -0.0164871 0)
(-0.000559232 -0.0157349 0)