/*--------------------------------*- C++ -*----------------------------------*\
| =========                 |                                                 |
| \\      /  F ield         | OpenFOAM: The Open Source CFD Toolbox           |
|  \\    /   O peration     | Version:  2312                                  |
|   \\  /    A nd           | Website:  www.openfoam.com                      |
|    \\/     M anipulation  |                                                 |
\*---------------------------------------------------------------------------*/
FoamFile
{
    version     2.0;
    format      ascii;
    arch        "LSB;label=32;scalar=64";
    class       volScalarField;
    location    "4.05";
    object      alphas;
}
// * * * * * * * * * * * * * * * * * * * * * * * * * * * * * * * * * * * * * //

dimensions      [0 0 0 0 0 0 0];

internalField   nonuniform List<scalar> 
2268
(
2
2
2
2
2
2
2
2
2
2
2
2
2
2
2
2
2
2
2
2
1.99996
1.99995
1.99995
2
2
2
2
2
2
2
2
2
2
2
2
2
2
2
2
2
2
2
2
2
1.99998
1.99998
2
2
2
2
2
2
2
2
2
2
2
2
2
2
2
2
2
2
2
2
2
2
2
2
2
2
2
2
2
2
2
2
2
2
2
2
2
2
2
2
2
2
2
2
2
2.00072
2
2
2
2
2
2
2
2
2
1.99998
1.99998
2
2
2
2
2.00003
1.99875
1.9941
1.98953
1.98438
1.96929
1.96161
1.95089
1.99006
1.99528
1.9974
2.00009
2.00012
1.99992
1.99981
1.99979
1.99907
1.98802
1.95482
1.89672
1.81288
1.7041
1.56483
1.42136
1.31942
1.24011
1.12203
1.01047
0.862133
0.768636
0.718515
0.80867
0.868085
0.98962
1.13383
1.26861
1.35194
1.35632
1.28169
1.13894
0.919316
0.704342
0.515958
0.358531
0.241098
0.138262
0.0684908
0.0510514
0.092706
0.118848
0.150472
0.151692
0.0810288
0.056381
0.00316834
0.00564172
0.0120206
0.0238145
0.0453537
0.0646564
0.0646658
0.0430636
0.00542115
0.000432198
0.000509973
0.000661018
0.00339719
0.0208904
0.0280178
0.0248687
0.0212396
0.0161908
0.0211986
0.0420709
0.127302
0.12128
0.0531819
1.94398
1.9468
1.95066
1.96033
1.97067
1.96953
1.96122
1.95137
1.94933
1.9496
1.94928
1.94796
1.94786
1.95211
1.96092
1.96156
1.96965
1.96813
1.96812
1.76741
1.86522
1.85774
1.85824
1.89187
1.90499
1.93974
1.96766
1.97039
1.95879
1.9577
1.96568
1.96729
1.96705
1.96772
1.9696
1.97668
1.97752
1.96733
0.893025
0.719014
0.494774
0.537493
0.820709
1.12452
1.37855
1.52937
1.61051
1.64729
1.62675
1.65149
1.73775
1.77625
1.76823
1.76668
1.76462
1.73174
1.64321
0.290032
0.0563448
0.0683178
0.0449048
0.0425119
0.0395549
0.142948
0.439083
0.531652
0.509312
0.889065
1.02108
1.06399
1.26166
1.4616
1.49088
1.42566
1.30666
1.25618
0.3089
0.125241
0.119447
0.123063
0.0835315
0.047006
0.0444583
0.145648
0.334905
0.201657
0.0728413
0.279948
0.493329
0.319967
0.488326
0.656086
0.560338
0.358258
0.559448
0.310283
0.0882196
0.0989121
0.207304
0.227331
0.156317
0.0514313
0.0384376
0.0619464
0.0545632
0.0697079
0.0874798
0.169102
0.135778
0.136363
0.146341
0.11989
0.133025
0.2271
0.230239
0.0437034
0.0131085
0.095328
0.268854
0.235877
0.089869
0.0418109
0.045664
0.063388
0.173668
0.131952
0.0983745
0.206302
0.256797
0.141053
0.157842
0.163253
0.197567
0.0219423
0.0137933
0.0130259
0.0532479
0.254284
0.223963
0.0710203
0.0520111
0.0603957
0.245934
0.268895
0.133499
0.0994476
0.466119
0.425181
0.241544
0.197816
0.163515
0.3093
0.000842761
0.00084902
0.00101185
0.00116122
0.000885577
0.000782333
0.000817915
0.000858574
0.000817025
0.000509143
0.000456383
0.000479103
0.000393704
0.0266922
0.0430262
0.0436042
0.0202957
0.0167776
0.0245861
0.0391868
0.0396983
0.0494182
0.0764651
0.000868395
0.00112711
0.000897016
0.000887919
0.000818038
0.000814421
0.000821369
0.00082388
0.00081974
0.000743033
0.000750327
0.000739148
0.000685048
0.00222276
0.00687188
0.0441507
0.0381002
0.0278475
0.0699888
0.115797
0.187305
0.195816
0.122361
0.0104822
0.00126236
0.00122791
0.00559907
0.00128899
0.00195513
0.00898904
0.0246685
0.0557991
0.0953332
0.11549
0.120831
0.13002
0.192387
0.264583
0.304436
0.321061
0.453242
0.631441
0.761318
0.876141
0.881305
0.830736
0.222535
0.142178
0.112889
0.136776
0.205488
0.294997
0.339399
0.401165
0.490295
0.600028
0.71221
0.832197
0.901986
0.93672
1.0105
1.03608
1.05365
1.16952
1.12455
1.0711
1.00566
1.00455
1.00764
0.871834
0.892543
0.870822
0.864049
0.87462
0.922706
0.959114
0.989788
1.04815
1.12975
1.1479
1.09419
1.00466
1.00079
1.01244
1.13849
1.16466
1.04209
1.00077
1.00065
1.00057
1.00061
1.00066
1.03523
1.02437
1.00439
1.00424
1.00459
1.00501
1.00241
1.00087
1.00075
1.00069
1.00051
1.00045
1.00044
1.00045
1.00048
1.00052
1.00071
1.00036
1.00017
0.999866
0.999794
0.999982
1.00024
1.84247
1.88975
1.90258
1.89221
1.83127
1.69552
1.56613
1.45008
1.34362
1.24303
1.16025
1.09308
1.05516
1.0366
1.0244
1.02214
1.01586
1.00544
1.00106
0.99902
1.00497
1.02788
1.04139
2.99905
2.99505
2.99437
2.99735
2.99755
2.99738
2.96833
2.91272
2.83328
2.73017
2.6026
2.47186
2.37429
2.29669
2.22156
2.17722
2.1189
2.00914
1.91976
1.91727
2.04388
2.20594
2.26994
2.99991
2.99989
3
3
2.99999
2.9999
3
3
3
2.99989
2.99568
2.98181
2.97785
2.98351
2.98632
2.99249
2.99914
2.99865
2.98889
2.97711
2.96272
2.96758
2.98376
3
3
3
3
2.99999
2.99999
3
3
3
3
3
3
3
3
3
3
3
3
2.99997
2.99995
2.99997
2.99997
2.99998
3
3
3
2.99999
2.99999
2.99999
3
2.99999
3
3
3
3
3
3
2.99998
2.99997
2.99997
2.99997
2.99998
2.99999
3
3
2.99998
3
3
3
3
3
2.99999
2.99995
2.99987
2.99991
2.99999
3
3
2.99998
2.99998
2.99998
2.99998
2.99998
3
3
3
3
2.99999
2.99999
3
3
3
3
3
2.99998
2.99985
2.99985
2.99985
2.99993
2.99993
2.99989
2.99993
3
3
3
3
2.99997
2.99996
2.99999
3
3
2.99999
3
3
3
3
3
2.99998
2.99991
2.99986
2.99986
2.99985
2.99985
2.99985
2.99988
2.99998
2.99998
2.99999
2.99996
2.99992
2.99991
2.99997
3
3
3
3
3
3
3
3
3
3
2.99999
2.99997
2.99993
2.99989
2.99988
2.99991
2.99994
2.99994
2.99994
2.99993
2.99991
2.99991
2.99994
2.99999
3
3
3
3
3
3
3
3
3
3
3
3
2.99999
2.99998
2.99997
2.99995
2.99995
2.99997
2.99999
2.99995
2.99991
2.99991
2.99993
2.99998
3
3
3
3
3
3
3
3
3
3
3
3
3
3
3
3
3
3
3
2.99997
2.99992
2.99992
2.99994
3
3
3
3
3
3
3
3
3
3
3
3
3
3
3
3
3
3
3
3
3
2.99996
2.99998
3
3
3
3
3
3
3
3
3
3
3
3
3
3
3
3
3
3
3
3
3
3
3
3
3
3
3
3
3
3
3
3
3
3
3
3
3
3
3
3
3
3
3
3
3
3
3
3
3
3
3
3
3
3
3
3
3
3
3
3
3
3
3
3
3
3
3
3
3
3
3
3
3
3
3
3
3
3
3
3
3
3
3
3
3
3
3
3
3
3
3
3
3
3
3
3
3
3
3
3
3
3
3
3
3
3
3
3
3
3
3
3
3
3
3
3
3
3
3
3
3
3
3
3
3
3
3
3
3
3
3
3
3
3
3
3
3
3
3
3
3
3
3
3
3
3
3
3
3
3
3
3
3
3
3
3
3
3
3
3
3
3
3
3
3
3
3
3
3
3
3
3
3
3
3
3
3
3
3
3
3
3
3
3
3
3
3
3
3
3
3
3
3
3
3
3
3
3
3
3
3
3
3
3
3
3
3
3
3
3
3
3
3
3
3
3
3
3
3
3
3
3
3
3
3
3
3
3
3
3
3
3
3
3
3
3
3
3
3
3
3
3
3
3
3
3
3
3
3
3
3
3
3
3
3
3
3
3
3
3
3
3
3
3
3
3
3
3
3
3
3
3
3
3
3
3
3
3
3
3
3
3
3
3
3
3
3
3
3
3
3
3
3
3
3
3
3
3
3
3
3
3
3
3
3
3
3
3
3
3
3
3
3
3
3
3
3
3
3
3
3
3
3
3
3
3
3
3
3
3
3
3
3
3
3
3
3
3
3
3
3
3
3
3
3
3
3
3
3
3
3
3
3
3
3
3
3
3
3
3
3
3
3
3
3
3
3
3
3
3
3
3
3
3
3
3
3
3
3
3
3
3
3
3
3
3
3
3
3
3
3
3
3
3
3
3
3
3
3
3
3
3
3
3
3
3
3
3
3
3
3
3
3
3
3
3
3
3
3
3
3
3
3
3
3
3
3
3
3
3
3
3
3
3
3
3
3
3
3
3
3
3
3
3
3
3
3
3
3
3
3
3
3
3
3
3
3
3
3
3
3
3
3
3
3
3
3
3
3
3
3
3
3
3
3
3
3
3
3
3
3
3
3
3
3
3
3
3
3
3
3
3
3
3
3
3
3
3
3
3
3
3
3
3
3
3
3
3
3
3
3
3
3
3
3
3
3
3
3
3
3
3
3
3
3
3
3
3
3
3
3
3
3
3
3
3
3
3
3
3
3
3
3
3
3
3
3
3
3
3
3
3
3
0.0875061
0.0908902
0.087827
0.0874361
0.0925226
0.0946276
0.0929623
0.10944
0.819996
0.81739
0.863397
0.831436
1.01022
1.0512
1.08068
1.02197
1.00078
1.00081
1.00055
0.999505
1.00038
1.00039
1.00027
1.00037
1.04304
1.04621
1.04769
1.04843
2.28017
2.30184
2.32103
2.32382
2.99254
2.99199
2.98325
2.97908
2.99998
2.99999
2.99999
3
2.99998
2.99998
2.99998
2.99998
2.99999
2.99999
2.99999
3
3
3
3
3
3
3
2.99999
3
2.99999
2.99999
3
3
2.99999
2.99999
3
3
3
3
3
3
3
3
3
3
3
3
3
3
3
3
3
3
3
3
3
3
3
3
3
3
3
3
3
3
3
3
3
3
3
3
3
3
3
3
3
3
3
3
3
3
3
3
3
3
3
3
3
3
3
3
3
3
3
3
3
3
3
3
3
3
3
3
3
3
3
3
3
3
3
3
3
3
3
3
3
3
3
3
3
3
3
3
3
3
3
3
3
3
3
3
3
3
3
3
3
3
3
3
3
3
0.0275208
0.015275
0.0129749
0.200045
0.397662
0.149739
0.0533958
0.068904
0.0998669
0.50044
0.558955
0.379686
0.515816
0.74347
0.406812
0.250084
0.199836
0.13383
0.309402
0.215542
0.308621
0.374942
0.699159
0.555698
0.155251
0.0784119
0.0817174
0.258434
0.854929
1.06875
1.10288
1.15903
0.898518
0.343859
0.197057
0.187505
0.149992
0.168247
0.94629
1.00681
1.06556
0.999883
0.773632
0.643233
0.551085
0.663999
0.715831
1.03889
1.07587
1.07659
1.12751
1.06439
0.864108
0.519239
0.454684
0.646598
0.691087
1.00316
1.00567
1.04739
1.06026
1.01226
1.05699
1.27422
0.881629
0.899384
1.04521
1.00722
1.00497
1.00659
1.03219
1.09932
1.08842
1.02753
1.01683
1.02465
0.996962
1.00001
1.00144
1.00169
1.00113
1.00836
1.31361
1.1046
0.901202
1.04351
1.03786
1.0031
1.00315
1.00382
1.00583
1.07201
1.07276
1.01548
1.00568
0.996996
0.989083
0.99544
1.00049
1.00091
1.00122
1.03684
1.27999
1.10817
1.10635
1.16247
1.00557
1.00331
1.00366
1.0043
1.01166
1.03928
1.01278
1.00376
1.04692
1.01283
0.985752
0.992977
1.00017
0.999156
0.995444
1.02607
1.15234
1.23735
1.1373
0.997395
0.998312
0.998745
1.00002
1.00358
1.00438
1.00541
1.00172
2.30418
2.18667
1.90147
1.45045
1.12189
1.00982
0.998855
0.999881
1.00049
1.00586
1.00574
0.998794
0.997495
0.99633
0.99744
0.99993
1.00337
1.006
1.00042
2.99031
2.99787
2.98667
2.91698
2.62414
2.13528
1.48887
1.05753
0.998807
0.998539
1.00105
1.00428
1.00527
1.03834
1.07471
1.14447
1.21979
1.23322
1.07946
2.99964
2.99983
2.99999
2.99999
2.99213
2.96939
2.92971
2.76441
2.11179
1.62992
1.68035
1.95546
2.23662
2.33556
2.39938
2.51255
2.62625
2.64413
2.33457
3
3
3
2.99999
2.99997
2.99997
2.99997
2.99186
2.96038
2.92738
2.94217
2.98262
2.99789
2.99868
2.99706
2.99757
2.99729
2.99517
2.99451
3
3
2.99997
2.99989
2.99982
2.99988
2.99998
2.99999
2.99852
2.99617
2.99871
2.99996
2.99999
3
3
3
2.99998
2.99991
2.99972
3
2.99993
2.99964
2.99968
2.99974
2.99984
3
3
3
3
3
2.99999
2.9997
2.99964
2.99966
2.99976
2.99975
2.9998
2.99991
2.99997
2.99967
2.99963
2.99968
2.99975
2.99989
3
3
3
3
2.99988
2.99952
2.9995
2.9995
2.99981
2.99988
2.99988
2.99985
2.99986
2.99993
2.99971
2.99964
2.99979
2.99988
2.99997
2.99999
3
3
2.9998
2.99949
2.99949
2.99949
2.99977
2.99991
2.99991
2.99992
2.99992
2.99984
2.99996
2.99985
2.99985
2.99998
2.99999
2.99998
2.99997
2.99999
2.99999
2.99964
2.99952
2.99952
2.99977
2.99994
2.99988
2.99987
2.99992
2.99992
2.99984
2.99999
2.9999
2.99988
2.99999
2.99999
2.99998
2.99997
2.99998
2.99999
2.99988
2.99973
2.99984
2.99996
2.99996
2.99992
2.99976
2.99974
2.99981
2.99988
2.99999
2.99997
2.99997
2.99994
2.99993
2.99998
2.99997
2.99994
2.99987
2.99983
2.99983
2.99983
2.99988
2.99995
2.99997
2.99989
2.99974
2.99974
2.99995
3
3
3
2.99997
2.99991
2.99991
2.99995
2.99994
2.9999
2.99989
2.99987
2.99982
2.99979
2.99979
2.99997
2.99997
2.99975
2.9998
2.99999
3
3
3
3
2.99997
2.99991
2.99991
2.99991
2.99993
2.99999
2.99999
2.99996
2.9998
2.99979
2.99987
2.99997
2.99975
2.9999
3
3
3
3
3
3
2.99998
2.99993
2.99991
2.99993
3
3
3
2.99987
2.99979
2.99981
2.99983
2.99975
2.99994
3
3
3
3
3
3
3
2.99999
2.99998
2.99999
3
3
3
2.99995
2.99979
2.99981
2.99977
2.99979
2.99999
3
3
3
3
3
3
3
3
3
3
3
3
3
3
2.9999
2.99987
2.99978
2.99995
3
3
3
3
3
3
3
3
3
3
3
3
3
3
3
3
2.99999
2.99992
2.99999
3
3
3
3
3
3
3
3
3
3
3
3
3
3
3
3
2.99999
3
3
3
3
3
3
3
3
3
3
3
3
3
3
3
3
3
3
3
3
3
3
3
3
3
3
3
3
3
3
3
3
3
3
3
3
3
3
3
3
3
3
3
3
3
3
3
3
3
3
3
3
3
3
3
3
3
3
3
3
3
3
3
3
3
3
3
3
3
3
3
3
3
3
3
3
3
3
3
3
3
3
3
3
3
3
3
3
3
3
3
3
3
3
3
3
3
3
3
3
3
3
3
3
3
3
3
3
3
3
3
3
3
3
3
3
3
3
3
3
3
3
3
3
3
3
3
3
3
3
3
3
3
3
3
3
2.99999
3
3
3
3
3
3
3
3
3
3
3
3
3
3
3
3
3
3
2.99999
3
3
3
3
3
3
3
3
3
3
3
3
3
2.99999
2.99999
3
3
3
2.99999
3
3
3
3
3
3
3
3
3
3
3
3
3
2.99999
2.99999
2.99999
3
3
3
3
3
3
3
3
3
3
3
3
3
3
3
3
3
2.99999
2.99999
2.99999
3
3
3
3
3
3
3
3
3
3
3
3
3
3
3
3
3
2.99999
2.99999
2.99999
2.99999
3
3
3
3
3
3
3
3
3
3
3
3
3
3
3
2.99999
2.99999
2.99999
3
3
3
3
3
3
3
3
3
3
3
3
3
3
3
3
3
3
3
3
3
3
3
3
3
3
3
3
3
3
3
3
3
3
3
3
3
3
3
3
3
3
3
3
3
3
3
3
3
3
3
3
3
3
3
3
3
3
3
3
3
3
3
3
3
3
3
3
3
3
3
3
3
3
3
3
3
)
;

boundaryField
{
    leftWall
    {
        type            calculated;
        value           nonuniform List<scalar> 
50
(
2
2
2
2
2
1.99006
0.80867
0.00316834
0.000842761
0.000868395
0.0104822
0.222535
0.871834
1.03523
1.84247
2.99905
2.99991
3
3
3
3
3
3
3
3
3
3
3
3
3
3
3
3
3
3
3
3
3
3
3
3
3
3
3
3
3
3
3
3
3
)
;
    }
    rightWall
    {
        type            calculated;
        value           nonuniform List<scalar> 
50
(
1.96812
1.96733
1.64321
1.25618
0.559448
0.2271
0.197567
0.3093
0.309402
0.168247
0.691087
1.02465
1.00568
1.00376
1.00172
1.00042
1.07946
2.33457
2.99451
2.99972
2.99991
2.99986
2.99984
2.99984
2.99988
2.99995
2.99999
3
3
3
3
3
3
3
3
3
3
3
3
2.99999
2.99999
2.99999
3
3
2.99999
3
3
3
3
3
)
;
    }
    lowerWall
    {
        type            calculated;
        value           nonuniform List<scalar> 
62
(
2
2
2
2
2
2
2
2
2
2
2
2
2
2
2
2
2
2
2
2
1.99996
1.99995
1.99995
1.99995
1.99998
2
2.00072
1.95089
0.718515
0.056381
0.0531819
0.0875061
0.0908902
0.087827
0.0874361
1.94398
1.76741
0.893025
0.290032
0.3089
0.310283
0.230239
0.0219423
1.94398
1.9468
1.95066
1.96033
1.97067
1.96953
1.96122
1.95137
1.94933
1.9496
1.94928
1.94796
1.94786
1.95211
1.96092
1.96156
1.96965
1.96813
1.96812
)
;
    }
    atmosphere
    {
        type            calculated;
        value           nonuniform List<scalar> 
46
(
3
3
3
3
3
3
3
3
3
3
3
3
3
3
3
3
3
3
3
3
3
3
3
3
3
3
3
3
3
3
3
3
3
3
3
3
3
3
3
3
3
3
3
3
3
3
)
;
    }
    defaultFaces
    {
        type            empty;
    }
}


// ************************************************************************* //
