/*--------------------------------*- C++ -*----------------------------------*\
| =========                 |                                                 |
| \\      /  F ield         | OpenFOAM: The Open Source CFD Toolbox           |
|  \\    /   O peration     | Version:  2312                                  |
|   \\  /    A nd           | Website:  www.openfoam.com                      |
|    \\/     M anipulation  |                                                 |
\*---------------------------------------------------------------------------*/
FoamFile
{
    version     2.0;
    format      ascii;
    arch        "LSB;label=32;scalar=64";
    class       volScalarField;
    location    "4.05";
    object      alpha.oil;
}
// * * * * * * * * * * * * * * * * * * * * * * * * * * * * * * * * * * * * * //

dimensions      [0 0 0 0 0 0 0];

internalField   nonuniform List<scalar> 
2268
(
7.59016e-10
7.86832e-10
1.1048e-09
1.40597e-09
1.42208e-09
1.44754e-09
1.7313e-09
2.1863e-09
1.12003e-09
7.19505e-10
5.62647e-10
4.54094e-10
4.40736e-10
5.45197e-10
8.71185e-10
1.77679e-09
4.10307e-09
9.6639e-09
2.3942e-08
4.15116e-06
3.90311e-05
4.65351e-05
4.63573e-05
7.10417e-10
4.2495e-09
1.38211e-08
2.32844e-08
4.35805e-08
6.9226e-08
2.94905e-08
1.04911e-08
2.69352e-09
1.51688e-09
1.51694e-09
1.32315e-09
1.23277e-09
1.39594e-09
1.57631e-09
3.58144e-09
3.98366e-08
1.08013e-07
7.67806e-08
1.18176e-07
4.53375e-06
2.02364e-05
2.28851e-05
5.04662e-10
2.6227e-09
1.64585e-08
5.39185e-08
1.84897e-07
1.84945e-07
1.25831e-07
1.12629e-09
1.11671e-09
1.352e-09
1.30071e-09
1.30572e-09
3.64724e-09
2.0576e-09
2.86871e-09
3.83207e-08
9.02427e-07
1.35998e-06
1.19818e-06
1.05178e-08
2.35423e-19
-1.44617e-11
-5.85605e-11
5.01746e-10
6.37523e-10
4.35226e-09
1.2284e-08
1.35238e-08
1.67043e-08
1.01987e-08
1.28002e-09
1.11714e-09
1.11651e-09
1.11733e-09
1.98992e-08
1.32742e-07
8.25435e-08
3.96926e-08
1.26314e-07
3.59737e-08
4.09015e-08
3.97276e-08
3.66955e-08
9.28762e-13
-9.52827e-12
-4.18123e-11
4.58968e-10
4.64214e-10
4.64918e-10
4.74974e-10
3.19732e-07
6.00357e-09
1.30649e-09
1.29324e-09
1.85804e-06
1.61807e-05
1.63408e-05
8.06364e-07
3.29649e-08
3.41704e-08
3.30335e-08
8.04253e-06
0.00177538
0.00706146
0.0115327
0.0104668
2.16479e-06
5.23245e-15
1.08089e-21
0.00569822
0.00563194
0.00358583
0.000552353
9.34965e-07
7.78622e-05
0.000195135
0.000226798
0.000441935
0.000643377
0.000441144
0.000112247
0.000401684
0.000280849
1.86708e-05
0.00244431
0.0344933
0.0770787
0.0994858
0.102977
0.0515532
0.0212861
0.00221257
0.00684943
0.00684824
0.00684943
0.00487874
0.000849447
0.000170034
0.000356803
0.000695919
0.00083836
0.000838007
0.000609923
0.000221946
0.00416405
0.015185
0.0157977
0.0137063
0.0448288
0.0724726
0.0829097
0.108095
0.116512
0.066363
0.0301551
0.00200181
0.00297025
0.00377496
0.00275722
0.00149193
0.000597031
0.000178092
0.000189621
0.000221654
0.000315496
0.000369499
0.000414741
0.00303838
0.0207308
0.0272678
0.0237844
0.0210774
0.0158846
0.0133355
0.0105867
0.0919609
0.102885
0.0429525
0.0278388
0.0278344
0.0278344
0.0278612
0.0283233
0.0272276
0.0267931
0.0267931
0.0267931
0.0270559
0.0267973
0.0267889
0.0267886
0.0267884
0.0267881
0.0267881
0.026788
0.026788
0.026788
0.055625
0.108607
0.111687
0.113585
0.105269
0.0923411
0.058442
0.0338234
0.0329457
0.0429894
0.0418714
0.0313561
0.029161
0.030892
0.0315861
0.030538
0.026788
0.0268213
0.0332596
0.29956
0.289262
0.228046
0.246351
0.354432
0.394412
0.394329
0.303254
0.215035
0.255052
0.354616
0.350238
0.262689
0.223953
0.231777
0.23354
0.241098
0.27918
0.367126
0.28599
0.044329
0.0324643
0.0181092
0.0195673
0.021614
0.108181
0.32667
0.329819
0.216448
0.47883
0.487807
0.473208
0.478602
0.513827
0.513865
0.513954
0.513954
0.513954
0.298621
0.0761655
0.0235298
0.0153334
0.0156379
0.0159489
0.0184701
0.131882
0.316459
0.186708
0.0548651
0.23774
0.415995
0.255182
0.360332
0.42972
0.366219
0.253867
0.506652
0.298219
0.0592344
0.00694925
0.00542426
0.0214804
0.0257752
0.018415
0.0236572
0.0503071
0.0362879
0.0230043
0.0449328
0.111389
0.087216
0.0877922
0.097682
0.0710241
0.0643484
0.177458
0.218239
0.0369526
0.00635114
0.00437831
0.0255825
0.050843
0.0352501
0.0203265
0.0189773
0.0171642
0.0170562
0.0229344
0.0441584
0.13532
0.135947
0.0598082
0.0503866
0.0487706
0.146847
0.0116348
0.00505246
0.00563518
0.00434873
0.0543252
0.0650313
0.032726
0.0162916
0.0123692
0.0799365
0.0800826
0.0289548
0.0449219
0.211842
0.108236
0.0301973
0.0301973
0.0485867
0.266665
3.39454e-05
3.02915e-05
5.737e-06
8.6891e-08
0.000107259
0.000129903
4.1214e-05
5.34894e-06
4.42734e-06
0.000169872
0.000192196
0.000169544
0.000249612
0.0263639
0.0415717
0.0412909
0.0189213
0.015431
0.0112968
0.00375505
0.00372772
0.0047351
0.0405774
5.54905e-06
8.07633e-06
3.52725e-06
9.61509e-08
6.45499e-06
4.27974e-06
5.29396e-24
-1.96619e-25
4.10834e-06
7.02245e-05
7.08364e-05
7.70267e-05
0.000104038
0.000108245
0.000110606
0.0334243
0.0266267
0.00968413
0.00400939
0.00446808
0.0218817
0.0532805
0.0717727
6.56605e-13
6.45937e-13
1.10674e-21
-1.78062e-10
6.4029e-24
-1.68839e-24
-9.13244e-29
-2.1203e-17
-2.29111e-10
2.91076e-06
0.00510638
0.0217645
0.0654051
0.128748
0.143002
0.125055
0.127254
0.22723
0.362512
0.492852
0.631034
0.738386
0.784389
0.0626506
0.0533832
0.0519969
0.0564756
0.0554983
0.0839806
0.125084
0.183977
0.268346
0.377837
0.489219
0.607844
0.754644
0.851048
0.81656
0.763775
0.780668
0.891315
0.934977
0.962646
0.996292
0.997413
0.995927
0.711686
0.744261
0.792891
0.814199
0.795773
0.824163
0.869259
0.930483
0.971593
0.935091
0.925934
0.952738
0.997522
0.999585
0.993775
0.930734
0.917282
0.978888
0.999421
0.999576
0.999569
0.999562
0.999554
0.982192
0.987605
0.997605
0.997604
0.997393
0.997152
0.998492
0.999422
0.999537
0.999532
0.999577
0.999584
0.999584
0.999585
0.999585
0.999585
0.999585
0.999585
0.999585
0.999583
0.99956
0.999548
0.999548
0.578326
0.554495
0.547681
0.55256
0.582989
0.65089
0.715624
0.773917
0.826743
0.875766
0.915665
0.947856
0.965807
0.975156
0.982666
0.985328
0.990552
0.996674
0.998278
0.99556
0.984452
0.971627
0.96903
1.17549e-07
0.00156286
0.00176447
0.000268787
3.90978e-15
8.59111e-16
0.014825
0.0430151
0.0828208
0.129022
0.185568
0.250956
0.299605
0.338048
0.375608
0.397786
0.436903
0.494777
0.53601
0.519111
0.452912
0.371844
0.339882
7.37084e-09
7.37408e-09
7.48534e-09
6.47683e-08
3.17587e-07
6.56551e-08
1.38353e-09
9.21575e-10
-2.86539e-10
-5.88264e-11
-1.35069e-12
-1.47126e-11
-4.25813e-11
2.45004e-26
6.80925e-17
5.34063e-17
7.42341e-19
-4.49136e-10
-9.4741e-09
-4.82341e-26
5.36707e-16
9.37581e-16
5.96015e-16
2.12018e-08
7.68567e-09
7.59498e-08
6.39862e-07
2.4416e-06
2.89134e-06
1.48821e-06
2.64676e-07
2.08427e-07
9.01066e-08
2.35368e-08
8.56665e-09
1.06267e-08
2.06777e-08
7.22206e-08
7.70629e-08
4.1613e-08
1.34674e-08
1.83379e-09
1.12348e-08
1.4412e-07
1.07435e-07
5.14114e-08
2.83903e-08
8.52497e-09
4.93941e-07
2.46325e-06
2.89174e-06
2.89127e-06
1.45012e-06
2.51851e-06
7.06941e-07
1.07488e-07
3.83354e-08
8.14024e-09
7.69791e-09
2.25534e-07
2.69668e-07
2.6831e-07
1.35484e-07
1.02425e-07
2.12786e-08
1.13187e-08
3.68854e-07
1.37558e-06
1.69324e-06
2.57237e-08
5.95608e-08
2.99744e-07
1.43896e-06
1.25989e-06
2.1398e-06
1.4859e-05
4.96828e-05
3.75306e-05
3.36801e-06
4.21223e-07
1.244e-06
1.75939e-06
1.17808e-06
2.63742e-07
1.83564e-07
3.96764e-07
3.16862e-07
1.61335e-07
3.61913e-08
6.91782e-07
2.3992e-06
2.39943e-06
2.50296e-08
7.69652e-08
9.37973e-08
7.59925e-08
7.476e-08
1.98041e-06
5.95592e-05
6.01061e-05
6.09313e-05
3.39034e-05
3.0267e-05
4.08042e-05
2.66676e-05
1.16288e-06
1.83664e-07
1.82314e-07
1.62052e-06
1.0506e-05
1.05587e-05
2.48054e-06
2.439e-07
4.86348e-07
2.17508e-06
2.13737e-08
4.29351e-08
5.08615e-08
7.27049e-08
7.87256e-08
3.56427e-06
3.28936e-05
5.80938e-05
6.09395e-05
5.91679e-05
5.35596e-05
5.25919e-05
3.91694e-05
1.22424e-06
1.82605e-07
1.83373e-07
1.57233e-05
1.67471e-05
1.57698e-05
2.86642e-06
2.47767e-07
2.46923e-07
1.66422e-08
1.93466e-08
2.86332e-08
5.30627e-08
1.02288e-07
1.67058e-07
6.37427e-07
8.93838e-09
5.12253e-06
1.68773e-05
2.34192e-05
2.99532e-05
3.04637e-05
1.87417e-05
6.00777e-07
4.69539e-07
3.22357e-06
1.67051e-05
1.67002e-05
1.4498e-05
6.51487e-06
4.5277e-06
8.39919e-07
6.50969e-08
1.65904e-08
1.8926e-08
4.49474e-08
9.14203e-08
1.34038e-07
4.30211e-09
2.01205e-09
1.75819e-09
1.61486e-09
1.54939e-09
1.48125e-09
1.48438e-09
1.4975e-09
5.08597e-07
7.32791e-07
1.4833e-06
2.98638e-06
1.14437e-05
1.39921e-05
1.49286e-05
1.49684e-05
6.27176e-06
6.74635e-07
1.44764e-08
1.59169e-08
3.29778e-08
5.59369e-08
5.50229e-08
2.84149e-08
7.43053e-09
4.4234e-09
2.24248e-09
1.66468e-09
1.57116e-09
1.66669e-09
1.53128e-08
4.72213e-07
1.23098e-08
3.33028e-09
3.3309e-09
3.32609e-09
3.80761e-06
1.38501e-05
1.4904e-05
1.49938e-05
1.85391e-06
6.07439e-09
1.12223e-08
2.08847e-08
2.88402e-08
1.91346e-08
2.06779e-08
1.0306e-08
7.75021e-09
4.89375e-09
3.47785e-09
2.6956e-09
2.85456e-09
2.26041e-08
5.56338e-08
1.71137e-08
3.3355e-09
3.32614e-09
3.32668e-09
3.32173e-09
3.73277e-09
6.46011e-06
7.23045e-06
1.93429e-07
2.74168e-09
8.98818e-09
1.36185e-08
1.51035e-08
1.41362e-08
1.30804e-08
9.44788e-09
7.2837e-09
5.31341e-09
4.10125e-09
3.48281e-09
2.88926e-09
1.79009e-09
1.4986e-09
1.5727e-09
3.71267e-09
3.64719e-09
3.43286e-09
3.29238e-09
3.2752e-09
3.23342e-09
3.23113e-09
8.36821e-08
2.45299e-09
5.87616e-09
8.99146e-09
9.74264e-09
9.6565e-09
8.38076e-09
6.75276e-09
4.80523e-09
3.42311e-09
2.85489e-09
2.46726e-09
2.32983e-09
2.10745e-09
1.95772e-09
2.33955e-09
3.16803e-09
3.47513e-09
3.6912e-09
3.88475e-09
3.96576e-09
3.3987e-09
1.3124e-08
4.75097e-08
2.45413e-09
4.1708e-09
5.88217e-09
6.79875e-09
6.46712e-09
5.21209e-09
3.80662e-09
2.30237e-09
1.79214e-09
1.40909e-09
1.3496e-09
1.38857e-09
1.47721e-09
1.62927e-09
1.85499e-09
2.14215e-09
2.54367e-09
3.02692e-09
3.74013e-09
4.91858e-09
6.85153e-09
1.02062e-08
1.75061e-08
2.44573e-09
2.81601e-09
3.44304e-09
3.48777e-09
3.16644e-09
2.38426e-09
1.46232e-09
1.09257e-09
7.93884e-10
6.84217e-10
6.45733e-10
6.53684e-10
7.15898e-10
8.33358e-10
1.00049e-09
1.22522e-09
1.51922e-09
1.90098e-09
2.40331e-09
3.12265e-09
4.30492e-09
6.84117e-09
9.82195e-09
2.5061e-09
2.4538e-09
2.37388e-09
2.00607e-09
1.56706e-09
1.13696e-09
8.25224e-10
6.0596e-10
4.86509e-10
3.84472e-10
3.19303e-10
2.95586e-10
3.16862e-10
3.83615e-10
4.93681e-10
6.48106e-10
8.53833e-10
1.12327e-09
1.47207e-09
1.90897e-09
2.49884e-09
3.4538e-09
5.3934e-09
2.57647e-09
2.19571e-09
1.84537e-09
1.53882e-09
1.27547e-09
1.01466e-09
6.85199e-10
5.33395e-10
4.34196e-10
3.35089e-10
2.45195e-10
1.83028e-10
1.60806e-10
1.78894e-10
2.3363e-10
3.24114e-10
4.54126e-10
6.3019e-10
8.58959e-10
1.15402e-09
1.53558e-09
2.21923e-09
2.79443e-09
2.78184e-09
2.22702e-09
1.78314e-09
1.53287e-09
1.38757e-09
1.21588e-09
7.47037e-10
5.92386e-10
5.11304e-10
4.00931e-10
2.80719e-10
1.78495e-10
1.15536e-10
9.37974e-11
1.0738e-10
1.50916e-10
2.23073e-10
3.27561e-10
4.69147e-10
6.44762e-10
8.77848e-10
1.14711e-09
1.66153e-09
2.89695e-09
2.31305e-09
1.9118e-09
1.67878e-09
1.67901e-09
1.66181e-09
8.19774e-10
6.58293e-10
6.05841e-10
4.97035e-10
3.58571e-10
2.2372e-10
1.2494e-10
7.05685e-11
5.45034e-11
6.69213e-11
1.01217e-10
1.57673e-10
2.4139e-10
3.55776e-10
4.99535e-10
7.49127e-10
8.97252e-10
3.14188e-09
2.50049e-09
2.08749e-09
1.78216e-09
1.93625e-09
2.31282e-09
8.33658e-10
6.93742e-10
6.85622e-10
5.87712e-10
4.44685e-10
2.87665e-10
1.60526e-10
7.8962e-11
3.9592e-11
3.17777e-11
4.39465e-11
7.26545e-11
1.20113e-10
1.87339e-10
2.82119e-10
3.93144e-10
5.81333e-10
3.27384e-09
2.74948e-09
2.25447e-09
1.61299e-09
1.61139e-09
2.74618e-09
6.70011e-10
6.8364e-10
7.38366e-10
6.53192e-10
5.16526e-10
3.49578e-10
2.0402e-10
1.0156e-10
4.35747e-11
2.1062e-11
1.98676e-11
3.22393e-11
5.78385e-11
9.93274e-11
1.57889e-10
2.83278e-10
3.54084e-10
3.63188e-09
3.39455e-09
2.25719e-09
9.03571e-09
3.18577e-08
1.59274e-09
5.01653e-10
6.49346e-10
7.58577e-10
6.85615e-10
5.59609e-10
3.93652e-10
2.4138e-10
1.26902e-10
5.54528e-11
2.13773e-11
1.13835e-11
1.51179e-11
2.86653e-11
5.35965e-11
1.01838e-10
1.51678e-10
2.58462e-10
3.489e-09
3.40098e-09
1.36195e-07
4.98738e-07
2.76101e-07
3.50799e-10
5.57808e-10
6.82988e-10
7.307e-10
6.80038e-10
5.64418e-10
4.09876e-10
2.61941e-10
1.45859e-10
6.81847e-11
2.60459e-11
9.91105e-12
8.37504e-12
1.54947e-11
3.0759e-11
5.53107e-11
1.21416e-10
1.67164e-10
4.64659e-09
2.37172e-08
3.94132e-07
8.51525e-07
3.6538e-07
3.52076e-10
1.47881e-09
3.64326e-09
6.17221e-10
5.95314e-10
5.09289e-10
3.95004e-10
2.59852e-10
1.51416e-10
7.58729e-11
3.10926e-11
1.07587e-11
5.59177e-12
8.68429e-12
1.79004e-11
4.02915e-11
6.84333e-11
1.26072e-10
4.57575e-09
1.7361e-08
5.50735e-07
8.50957e-07
2.04362e-07
1.27489e-09
2.09163e-09
9.91837e-09
4.82927e-10
5.33268e-10
4.51837e-10
3.52926e-10
2.35717e-10
1.41126e-10
7.50935e-11
3.34092e-11
1.21546e-11
4.55636e-12
4.71793e-12
9.86513e-12
2.06652e-11
5.52186e-11
8.2168e-11
6.40012e-09
4.8408e-08
6.17357e-07
8.5176e-07
1.79804e-07
1.22662e-09
6.25192e-08
1.46268e-08
4.81581e-10
5.0951e-10
3.78885e-10
2.92418e-10
1.96044e-10
1.18154e-10
6.53365e-11
3.15929e-11
1.25137e-11
4.23385e-12
2.62305e-12
5.04233e-12
1.37912e-11
2.49786e-11
6.04002e-11
6.52875e-09
6.35961e-08
6.80151e-07
8.52141e-07
3.51348e-07
5.8284e-08
1.25168e-07
1.31622e-08
4.80868e-10
4.79837e-10
2.96804e-10
2.24655e-10
1.49798e-10
8.90774e-11
4.97568e-11
2.55684e-11
1.12697e-11
3.95582e-12
1.71162e-12
2.50802e-12
5.65617e-12
1.97301e-11
3.13662e-11
5.94216e-09
9.10044e-08
7.94738e-07
8.52968e-07
1.4515e-07
1.36841e-07
1.34209e-07
2.02354e-08
7.44311e-10
4.17841e-10
2.1533e-10
1.59634e-10
1.05093e-10
6.04361e-11
3.29445e-11
1.75159e-11
8.45324e-12
3.31413e-12
1.23791e-12
1.25931e-12
2.89341e-12
6.34907e-12
2.01437e-11
4.32212e-09
8.47956e-08
7.28796e-07
7.65635e-07
8.54983e-08
1.61105e-07
1.04489e-07
1.67871e-08
1.25345e-09
3.32737e-10
1.43624e-10
1.03549e-10
6.71943e-11
3.66392e-11
1.87806e-11
9.87546e-12
5.11322e-12
2.28342e-12
8.70686e-13
6.3358e-13
1.46713e-12
4.0809e-12
8.33864e-12
4.31051e-09
7.38652e-08
2.81873e-07
1.9921e-07
8.94997e-08
1.61091e-07
5.59165e-08
1.13774e-08
1.2036e-09
2.28297e-10
8.40248e-11
6.00592e-11
3.87043e-11
1.99072e-11
9.28483e-12
4.55768e-12
2.41124e-12
1.20852e-12
5.13359e-13
2.45429e-13
4.1382e-13
1.06415e-12
4.45332e-12
4.3105e-09
4.04761e-08
1.09033e-07
5.52266e-08
8.18484e-08
1.29588e-07
3.93858e-08
8.00978e-09
9.63129e-10
1.22706e-10
4.08949e-11
3.02759e-11
1.97029e-11
9.67083e-12
4.02688e-12
1.72238e-12
8.5748e-13
4.62701e-13
2.35402e-13
1.19284e-13
1.786e-13
5.31881e-13
1.31279e-12
6.66585e-09
1.09882e-08
1.50239e-08
2.13752e-08
8.5304e-08
4.95706e-08
2.15027e-08
4.97017e-09
6.51627e-10
5.13042e-11
1.51989e-11
1.26127e-11
8.51815e-12
4.11156e-12
1.55041e-12
5.45488e-13
2.2698e-13
1.19785e-13
7.35174e-14
4.27831e-14
3.89632e-14
1.00181e-13
5.00608e-13
7.30089e-09
1.01307e-08
1.00965e-08
5.06138e-08
8.51922e-08
3.42094e-08
1.14863e-08
2.70564e-09
3.47576e-10
2.13357e-11
4.2621e-12
4.05421e-12
2.96217e-12
1.44294e-12
5.11777e-13
1.48743e-13
4.62657e-14
2.07671e-14
1.46197e-14
1.21847e-14
1.14491e-14
3.95249e-14
1.20468e-13
1.04901e-08
1.00793e-08
1.00891e-08
7.06148e-08
5.37355e-08
2.08644e-08
5.40333e-09
9.38725e-10
9.42801e-11
5.32403e-12
7.50985e-13
8.41567e-13
6.91383e-13
3.55535e-13
1.22547e-13
3.05264e-14
6.65223e-15
2.16872e-15
1.86594e-15
2.30963e-15
2.51413e-15
5.37553e-15
3.48123e-14
2.77022e-08
1.60632e-08
5.96833e-08
5.82889e-08
1.60988e-08
3.38854e-09
6.34801e-10
7.45651e-11
5.27895e-12
3.29895e-13
5.34163e-14
8.55807e-14
8.21564e-14
4.56955e-14
1.59566e-14
3.453e-15
5.42214e-16
1.22e-16
1.45961e-16
3.1669e-16
6.04202e-16
1.82175e-15
7.52741e-15
0.0783839
0.083186
0.0801154
0.0796741
0.0825457
0.0866722
0.0823854
0.0790151
0.805591
0.805215
0.738165
0.695436
0.994715
0.974312
0.959601
0.988838
0.999548
0.999548
0.999548
0.9986
0.99955
0.999548
0.999548
0.999547
0.97188
0.970715
0.969268
0.971576
0.340749
0.33195
0.322248
0.320915
6.03675e-16
6.59915e-16
2.4411e-15
4.00318e-15
1.39608e-07
1.67598e-07
1.92896e-07
2.13816e-07
1.17507e-06
1.10628e-06
1.11647e-06
1.22512e-06
2.39747e-06
2.39429e-06
2.39966e-06
2.40023e-06
1.76509e-06
1.0764e-06
1.08813e-06
3.88226e-07
1.4222e-09
1.44123e-09
1.19189e-08
1.12094e-08
4.40216e-08
2.77744e-08
1.12207e-08
1.12432e-08
6.27889e-08
1.24687e-07
6.82698e-08
3.80526e-07
3.47887e-08
1.69949e-07
2.38324e-07
2.41638e-07
3.52137e-08
6.86367e-08
1.45929e-07
1.12526e-07
2.41375e-07
1.20737e-07
5.10476e-08
4.21356e-08
9.51605e-08
9.79786e-08
6.4636e-08
5.92172e-08
2.7654e-08
5.22541e-08
7.48824e-08
9.30082e-08
1.47432e-08
2.64443e-08
3.47579e-08
5.61212e-08
6.97124e-09
8.33814e-09
1.28658e-08
1.6184e-08
3.91884e-09
4.96636e-09
5.30042e-09
6.85533e-09
2.00691e-09
2.2441e-09
3.04791e-09
3.35388e-09
1.19664e-09
1.38989e-09
1.47345e-09
1.74987e-09
7.06522e-10
7.90724e-10
9.78637e-10
1.03411e-09
4.89801e-10
5.75663e-10
6.16062e-10
7.43001e-10
3.39164e-10
3.92053e-10
4.93674e-10
5.29522e-10
2.48366e-10
3.16482e-10
3.47343e-10
4.36633e-10
1.80851e-10
2.18822e-10
2.82021e-10
3.0998e-10
1.34822e-10
1.72735e-10
1.97156e-10
2.60078e-10
8.5137e-11
1.06217e-10
1.50987e-10
1.67743e-10
6.20718e-11
7.40223e-11
9.12528e-11
1.245e-10
2.98845e-11
3.88016e-11
5.81743e-11
6.90745e-11
1.73475e-11
2.20934e-11
2.83784e-11
3.99359e-11
7.38378e-12
1.02148e-11
1.51478e-11
1.80469e-11
3.17164e-12
4.12223e-12
5.53175e-12
8.13526e-12
9.64122e-13
1.41959e-12
2.10765e-12
2.70346e-12
2.97837e-13
4.29671e-13
6.14264e-13
9.70913e-13
7.8215e-14
1.19199e-13
1.88495e-13
2.61524e-13
2.04224e-14
3.16289e-14
4.66084e-14
6.20443e-14
0.0132971
0.0051043
0.00570036
0.132663
0.254154
0.0726005
0.015483
0.008317
0.0125438
0.29308
0.357696
0.214726
0.270561
0.421343
0.0927534
0.0301971
0.0301975
0.081259
0.275282
0.126004
0.26606
0.362073
0.578899
0.41263
0.036724
0.0074872
0.00744089
0.109226
0.706754
0.864964
0.831614
0.835337
0.576029
0.107085
0.0302027
0.0339913
0.0781362
0.11707
0.845726
0.995402
0.958015
0.867103
0.654312
0.529513
0.259792
0.0942709
0.385941
0.919557
0.951493
0.952877
0.925772
0.853991
0.629087
0.419257
0.375454
0.558076
0.602566
0.99631
0.996157
0.976245
0.968846
0.988649
0.965981
0.701336
0.311722
0.336645
0.847442
0.993316
0.995583
0.994589
0.981002
0.946453
0.932677
0.951958
0.980277
0.978924
0.996363
0.995362
0.998821
0.998803
0.999035
0.991635
0.837692
0.53256
0.338478
0.546303
0.963726
0.997436
0.997435
0.997436
0.99656
0.963268
0.961075
0.987845
0.990538
0.996992
0.98479
0.991745
0.999005
0.999047
0.998765
0.980246
0.7617
0.544897
0.544597
0.83758
0.99683
0.997435
0.997435
0.997435
0.993757
0.979947
0.989691
0.991908
0.975356
0.970396
0.977372
0.98853
0.998703
0.998742
0.99531
0.984854
0.915808
0.828767
0.891165
0.990132
0.997435
0.997435
0.997435
0.997435
0.997397
0.993935
0.992931
0.344887
0.396206
0.519977
0.74471
0.918647
0.990227
0.998686
0.998686
0.998695
0.996005
0.995948
0.997292
0.997341
0.99617
0.997286
0.997434
0.996354
0.992487
0.992945
1.19376e-18
1.0339e-18
7.09528e-17
0.0225104
0.159092
0.403276
0.739902
0.968592
0.99837
0.99785
0.996836
0.995812
0.992268
0.973563
0.955368
0.920531
0.885324
0.878608
0.954296
9.5707e-08
1.03595e-08
1.17769e-10
2.05437e-07
3.4916e-11
2.14981e-11
0.00261849
0.0851278
0.414899
0.673953
0.657027
0.520107
0.379412
0.327044
0.292658
0.236432
0.182129
0.173267
0.329281
4.38157e-07
1.16234e-08
1.43723e-24
7.98195e-07
1.37223e-05
1.25224e-05
6.38343e-08
1.49584e-12
0.00462491
0.0240095
0.0251473
0.00734358
-7.41039e-20
-4.10729e-19
9.29694e-20
6.84595e-20
4.93056e-19
-2.51215e-19
-1.28118e-19
7.8576e-07
1.08266e-08
8.33586e-06
4.82876e-05
8.61421e-05
5.73991e-05
8.76116e-06
4.79146e-06
2.05719e-09
1.20768e-11
2.11132e-15
1.05941e-17
-9.91602e-14
-2.79544e-20
6.25737e-32
2.83132e-26
9.09385e-06
7.0549e-15
-1.03291e-21
2.38558e-07
2.09434e-05
0.00011921
0.000126905
0.000126915
7.71498e-05
7.26836e-16
-5.16409e-13
2.46744e-10
2.92937e-10
-1.00974e-29
2.1219e-15
0.000125471
0.000153929
0.000160372
0.000117962
0.000116192
9.61511e-05
1.55608e-05
2.66035e-06
9.54586e-05
0.000125792
0.000126915
0.000126919
5.28278e-05
-5.33985e-12
4.21857e-10
4.27791e-10
3.16336e-10
4.46049e-05
0.000205718
0.000213843
0.000214914
6.04896e-05
3.55238e-05
5.54516e-05
7.36598e-05
6.52006e-05
1.56607e-06
6.99858e-05
0.000103475
9.59826e-05
6.12791e-05
9.15567e-06
-7.64625e-14
-6.81825e-13
-1.79553e-18
8.41761e-05
0.000218423
0.000218505
0.000218799
8.30066e-05
2.35201e-05
2.31796e-05
2.98972e-05
2.97863e-05
6.51645e-05
2.85962e-06
3.5513e-06
1.56034e-08
1.53023e-08
4.55909e-06
8.19202e-06
5.56261e-06
3.17391e-07
4.95886e-06
0.000170924
0.00021832
0.000218462
9.63837e-05
1.60812e-05
4.63837e-05
5.72644e-05
2.80639e-05
2.48894e-05
6.34029e-05
1.58016e-07
1.22046e-08
1.02935e-07
7.88857e-07
9.40706e-07
9.96663e-07
2.0272e-06
1.55467e-06
6.24924e-06
6.06088e-05
0.00013251
7.83238e-05
1.60645e-05
1.66287e-05
3.91722e-05
0.000113374
0.000112579
7.20561e-05
4.08899e-05
2.11932e-08
1.22012e-08
1.50238e-07
2.13107e-05
3.39961e-05
1.56311e-06
1.35502e-08
1.38014e-08
3.26416e-06
2.00845e-05
2.00416e-05
1.31841e-05
1.30152e-05
1.55609e-05
1.42366e-05
5.31645e-05
0.000115421
0.000105048
1.76918e-05
1.85693e-08
1.21968e-08
1.21981e-08
1.31133e-05
4.28698e-05
4.28477e-05
1.8262e-05
1.31295e-08
6.00015e-08
2.98766e-07
5.93174e-08
8.40784e-06
2.80542e-05
3.65514e-05
1.34018e-05
1.39324e-05
0.000115391
7.62575e-05
3.48137e-06
7.37032e-08
6.5725e-08
4.92058e-08
7.26421e-07
1.72512e-05
4.3546e-05
4.3187e-05
3.83072e-05
2.10559e-05
6.81343e-07
5.98443e-08
5.55459e-07
3.57243e-05
3.66536e-05
1.34149e-05
1.34003e-05
0.000115314
4.49456e-05
4.97714e-08
1.15931e-07
1.53664e-07
1.47085e-07
1.12545e-07
3.99193e-08
1.10889e-05
3.58955e-05
4.13959e-05
3.39232e-05
1.92167e-06
6.91562e-08
2.63388e-08
3.30774e-05
3.61044e-05
2.20646e-05
5.42876e-05
0.000114652
2.97996e-05
4.97714e-08
7.27282e-08
1.33095e-07
1.59905e-07
1.05931e-07
4.00177e-08
3.9924e-08
2.51258e-06
9.73987e-06
6.21085e-06
1.03064e-06
2.63831e-08
2.64381e-08
1.92134e-05
3.42947e-05
2.06029e-05
7.9576e-05
9.35285e-05
5.56758e-06
4.97714e-08
2.27379e-08
4.2609e-08
6.93589e-08
6.43289e-08
4.06576e-08
5.09903e-08
5.13809e-08
5.17755e-08
5.21833e-08
1.34423e-07
5.34321e-08
2.63307e-08
1.77954e-06
7.59635e-06
8.0937e-06
8.1423e-05
2.28546e-05
1.05134e-07
4.97714e-08
8.3878e-09
1.38054e-08
2.24734e-08
3.22961e-08
3.48374e-08
6.77701e-08
1.22151e-07
1.42553e-07
1.50177e-07
1.48599e-07
7.16255e-08
2.69978e-08
2.67075e-08
2.66895e-08
4.66777e-06
3.51315e-05
4.70208e-07
5.82179e-08
1.14156e-07
4.10602e-09
6.39735e-09
1.03229e-08
1.61672e-08
2.26505e-08
2.79363e-08
5.8518e-08
1.15384e-07
1.43346e-07
1.28142e-07
5.93398e-08
3.47895e-08
2.67029e-08
2.67014e-08
3.03711e-06
4.5304e-08
4.66849e-08
1.05563e-07
1.46817e-07
1.99438e-09
2.83491e-09
4.30178e-09
6.74603e-09
1.0329e-08
1.36735e-08
1.32664e-08
1.6076e-08
2.66884e-08
4.07587e-08
5.4956e-08
3.51679e-08
3.28696e-08
1.43097e-07
1.03521e-07
4.50215e-08
7.00241e-08
1.33777e-07
1.27538e-07
1.16711e-09
1.51915e-09
2.07142e-09
2.99885e-09
4.56628e-09
7.01136e-09
9.81981e-09
1.27042e-08
1.81753e-08
3.11228e-08
4.07586e-08
3.12063e-08
3.23079e-08
2.07948e-07
4.95521e-08
4.47655e-08
5.2755e-08
1.24695e-07
8.10693e-08
8.02936e-10
1.03617e-09
1.34223e-09
1.78705e-09
2.46131e-09
3.55515e-09
5.27751e-09
7.80659e-09
1.18541e-08
1.86117e-08
2.43766e-08
2.15466e-08
2.87087e-08
1.88461e-07
4.13888e-08
3.32873e-08
2.72919e-08
5.33088e-08
5.22652e-08
6.13829e-10
8.10114e-10
1.05584e-09
1.37843e-09
1.79991e-09
2.39142e-09
3.25545e-09
4.54713e-09
6.57828e-09
9.89263e-09
1.3765e-08
1.53825e-08
1.71102e-08
8.30362e-08
2.32822e-08
2.20184e-08
2.66382e-08
4.98614e-08
6.8786e-08
4.85815e-10
6.706e-10
8.97217e-10
1.18189e-09
1.54838e-09
2.04266e-09
2.66495e-09
3.48712e-09
4.63378e-09
6.40302e-09
8.84866e-09
1.07195e-08
1.00955e-08
1.58461e-08
2.66094e-08
6.91054e-08
1.52206e-07
2.18021e-07
6.81111e-08
4.05035e-10
5.51939e-10
7.69632e-10
1.04914e-09
1.43333e-09
1.93923e-09
2.60204e-09
3.36628e-09
4.27185e-09
5.47726e-09
7.27123e-09
8.77015e-09
8.37382e-09
8.6036e-09
2.87648e-08
2.48139e-07
3.69371e-07
3.20453e-07
1.48154e-06
2.9984e-10
4.47055e-10
6.31689e-10
8.9817e-10
1.32732e-09
1.90701e-09
2.72121e-09
3.72225e-09
4.81863e-09
6.19609e-09
8.84005e-09
1.36095e-08
8.36813e-09
8.33269e-09
1.19045e-08
1.22775e-07
3.82852e-07
4.26421e-07
2.88986e-06
2.32629e-10
3.23054e-10
4.76167e-10
7.06037e-10
1.14388e-09
1.80202e-09
2.82682e-09
4.24725e-09
5.97003e-09
7.85382e-09
1.13671e-08
3.66361e-08
1.35699e-07
8.33009e-09
8.28988e-09
8.33009e-09
2.74236e-07
3.79847e-07
3.07634e-06
1.44544e-10
2.18758e-10
3.30624e-10
5.16703e-10
8.60277e-10
1.54962e-09
2.7443e-09
4.73786e-09
7.58995e-09
1.1222e-08
1.96864e-08
4.79185e-08
1.86957e-07
2.71384e-06
4.92002e-06
3.79356e-07
1.6148e-07
2.88637e-07
3.02527e-06
9.10668e-11
1.32594e-10
2.05838e-10
3.36474e-10
5.9224e-10
1.13466e-09
2.29303e-09
4.69055e-09
9.14545e-09
1.59294e-08
2.68189e-08
5.68426e-08
1.46882e-07
3.73919e-06
7.03487e-06
6.13015e-06
1.61866e-07
1.6148e-07
7.42636e-07
4.69565e-11
7.29139e-11
1.14692e-10
1.91057e-10
3.49988e-10
7.14018e-10
1.59158e-09
3.73552e-09
8.58994e-09
1.75831e-08
3.35857e-08
6.39847e-08
1.5248e-07
1.65048e-06
7.06712e-06
7.10619e-06
3.95256e-06
1.72251e-07
5.02357e-07
2.26996e-11
3.58679e-11
5.73819e-11
9.77737e-11
1.84413e-10
3.89459e-10
9.19401e-10
2.34419e-09
6.06725e-09
1.43961e-08
3.32739e-08
6.59083e-08
1.24679e-07
2.58974e-07
2.44839e-06
7.11666e-06
7.10619e-06
4.51844e-06
3.84733e-06
9.78291e-12
1.57766e-11
2.57382e-11
4.49021e-11
8.71231e-11
1.88983e-10
4.58512e-10
1.22203e-09
3.44768e-09
9.52314e-09
2.49681e-08
5.51602e-08
1.15721e-07
1.8424e-07
3.11884e-07
3.76175e-06
6.27162e-06
3.75951e-06
1.37584e-06
3.84715e-12
6.1017e-12
1.01411e-11
1.82407e-11
3.66422e-11
8.16854e-11
2.02572e-10
5.48211e-10
1.57181e-09
4.37102e-09
1.18821e-08
3.14647e-08
8.09855e-08
1.63197e-07
1.85311e-07
1.20029e-07
7.04597e-07
2.62815e-07
2.43665e-07
1.21657e-12
2.03512e-12
3.51376e-12
6.58886e-12
1.3779e-11
3.23905e-11
8.44242e-11
2.37249e-10
7.04498e-10
2.15196e-09
6.24044e-09
1.80246e-08
4.10239e-08
1.17795e-07
1.79308e-07
8.84432e-08
8.73944e-08
1.01141e-07
9.76044e-08
3.41685e-13
5.74601e-13
1.01224e-12
1.96242e-12
4.24419e-12
1.03254e-11
2.83169e-11
8.54257e-11
2.71953e-10
8.90088e-10
2.86302e-09
8.92957e-09
2.52723e-08
7.0909e-08
1.52092e-07
1.45788e-07
8.74065e-08
8.8172e-08
1.29099e-07
7.92982e-14
1.28475e-13
2.22787e-13
4.37992e-13
9.66473e-13
2.39978e-12
6.83399e-12
2.20014e-11
7.67047e-11
2.78383e-10
9.91061e-10
3.3502e-09
9.67521e-09
2.54966e-08
7.33841e-08
1.7438e-07
1.66151e-07
1.48609e-07
1.38151e-07
)
;

boundaryField
{
    leftWall
    {
        type            zeroGradient;
    }
    rightWall
    {
        type            zeroGradient;
    }
    lowerWall
    {
        type            zeroGradient;
    }
    atmosphere
    {
        type            inletOutlet;
        inletValue      uniform 0;
        value           nonuniform List<scalar> 
46
(
2.77022e-08
1.60632e-08
5.96833e-08
0
0
0
0
0
0
0
0
0
0
0
0
0
0
0
0
0
0
0
0
0
0
0
0
0
0
0
0
0
0
6.83399e-12
2.20014e-11
7.67047e-11
2.78383e-10
9.91061e-10
3.3502e-09
9.67521e-09
2.54966e-08
7.33841e-08
1.7438e-07
1.66151e-07
1.48609e-07
1.38151e-07
)
;
    }
    defaultFaces
    {
        type            empty;
    }
}


// ************************************************************************* //
