/*--------------------------------*- C++ -*----------------------------------*\
| =========                 |                                                 |
| \\      /  F ield         | OpenFOAM: The Open Source CFD Toolbox           |
|  \\    /   O peration     | Version:  2312                                  |
|   \\  /    A nd           | Website:  www.openfoam.com                      |
|    \\/     M anipulation  |                                                 |
\*---------------------------------------------------------------------------*/
FoamFile
{
    version     2.0;
    format      ascii;
    arch        "LSB;label=32;scalar=64";
    class       volScalarField;
    location    "4.05";
    object      alpha.water;
}
// * * * * * * * * * * * * * * * * * * * * * * * * * * * * * * * * * * * * * //

dimensions      [0 0 0 0 0 0 0];

internalField   nonuniform List<scalar> 
2268
(
3.69531e-07
3.26358e-07
3.64376e-08
3.45161e-09
1.56228e-09
3.8133e-10
1.33311e-10
1.05992e-10
6.63048e-11
5.76862e-11
5.42692e-11
5.40334e-11
5.82554e-11
6.887e-11
8.49933e-11
1.14104e-10
1.52137e-10
2.0484e-10
2.92373e-10
5.56951e-10
1.0007e-09
1.34652e-09
1.44291e-09
3.59967e-07
2.24399e-07
3.2401e-08
2.95753e-10
2.96733e-10
2.35465e-10
1.49792e-10
1.11215e-10
1.00225e-10
9.9885e-11
9.54943e-11
8.91371e-11
9.66163e-11
1.09681e-10
1.26059e-10
1.61586e-10
2.28571e-10
4.15387e-10
5.90787e-10
8.9936e-10
1.42599e-09
1.6262e-09
1.60216e-09
8.81525e-08
5.01543e-08
1.44049e-08
1.09584e-09
1.8546e-10
2.13489e-10
2.76858e-10
4.95096e-10
6.48445e-10
6.30498e-10
3.45018e-10
1.55398e-10
1.25174e-10
1.34562e-10
1.4597e-10
3.50573e-10
1.24521e-09
1.91281e-09
1.57105e-09
9.04927e-10
1.88276e-09
1.0683e-09
1.04212e-09
2.43565e-08
1.01759e-08
3.44271e-09
6.01421e-10
1.42905e-10
2.43969e-10
1.08768e-09
2.39475e-09
2.9573e-09
2.55932e-09
1.12869e-09
1.44217e-10
4.17633e-11
5.81471e-11
5.94312e-11
5.81665e-10
2.14752e-09
3.07168e-09
1.65963e-09
1.05697e-08
4.62059e-08
1.0421e-09
1.04401e-09
6.99042e-18
1.35128e-17
1.18137e-10
2.14867e-11
1.81824e-11
5.53722e-11
1.55186e-10
2.02216e-10
4.04308e-19
5.3138e-21
3.84652e-21
-6.02406e-21
-1.71922e-14
-7.4061e-15
2.65933e-08
5.14824e-19
-1.20302e-15
-5.26017e-16
0.000170276
0.00298151
0.015412
0.0205438
0.0274665
0.00245137
0
2.3988e-22
2.24948e-23
1.98745e-23
1.55926e-23
1.78844e-22
1.59506e-15
0.000287875
0.00573611
0.0224403
0.0516164
0.0933714
0.14782
0.217633
0.28826
0.324682
0.346224
0.395452
0.44915
0.546496
0.608033
0.642617
0.592851
0.563197
0.502429
0.431308
0.365911
0.324113
0.32166
0.358809
0.430167
0.540041
0.647642
0.742028
0.818695
0.87189
0.923226
0.959491
0.953095
0.920781
0.905098
0.877766
0.871748
0.928735
0.959152
0.997609
0.996096
0.992766
0.987378
0.977241
0.967806
0.967696
0.978399
0.997192
0.999644
0.999583
0.999502
0.996841
0.979215
0.972481
0.975853
0.978867
0.984001
0.984001
0.978881
0.896203
0.890913
0.953569
0.0142041
0.013269
0.0120757
0.00884099
0.00509463
0.00621143
0.0105834
0.0135022
0.0136907
0.0134284
0.0137084
0.014325
0.0143205
0.0118342
0.00743048
0.00710922
0.00493141
0.00557538
0.00558031
0.0886
0.013254
0.0156533
0.0146261
0.00204711
0.00204709
0.00204791
0.00229227
0.00207711
0.0020767
0.0020771
0.00314357
0.00338683
0.00231288
0.00162947
0.00171074
0.00192871
0.0021532
0.00283116
0.404251
0.498261
0.641091
0.610608
0.414935
0.242277
0.11587
0.0913776
0.0966307
0.0582068
0.0127291
0.00127726
0.00127812
0.00127481
0.00127794
0.00128064
0.00128232
0.00128399
0.00128574
0.712526
0.951526
0.951497
0.970358
0.971445
0.971154
0.876171
0.62282
0.578666
0.644554
0.324254
0.258471
0.243861
0.141625
0.0202915
0.00662904
0.0411158
0.0995278
0.122757
0.697747
0.902197
0.935359
0.937893
0.953472
0.971352
0.971442
0.863481
0.67735
0.80826
0.938575
0.747792
0.557821
0.721153
0.583784
0.472363
0.551923
0.708427
0.475304
0.697596
0.927394
0.952124
0.910562
0.893235
0.917575
0.966963
0.970843
0.945764
0.957126
0.959434
0.939634
0.868994
0.896229
0.895651
0.885731
0.912298
0.912228
0.805549
0.777292
0.96079
0.99139
0.960973
0.876596
0.871662
0.941503
0.970846
0.970847
0.965898
0.927902
0.938272
0.937386
0.840269
0.821826
0.911932
0.912394
0.912307
0.835801
0.98433
0.991698
0.991796
0.979301
0.869553
0.870371
0.951845
0.970843
0.970839
0.861084
0.852793
0.935028
0.9365
0.698389
0.77992
0.895482
0.912481
0.912393
0.718675
0.999696
0.999697
0.999659
0.999613
0.999633
0.999653
0.999698
0.999699
0.999699
0.999699
0.999699
0.999699
0.999698
0.973492
0.957721
0.957572
0.980411
0.984001
0.984004
0.98399
0.983969
0.980173
0.947375
0.999698
0.999619
0.999699
0.999698
0.999699
0.999698
0.999698
0.999696
0.999699
0.999698
0.999699
0.999698
0.999698
0.999183
0.996891
0.962173
0.968901
0.983995
0.973411
0.957383
0.921503
0.89787
0.910471
0.996455
0.999558
0.999591
0.998131
0.999549
0.999292
0.996885
0.991709
0.981377
0.968178
0.958028
0.945116
0.912984
0.849706
0.815644
0.814326
0.807856
0.69626
0.545894
0.415709
0.285313
0.212074
0.198595
0.883908
0.916953
0.927571
0.91615
0.893643
0.844913
0.803175
0.743604
0.657648
0.548036
0.436254
0.316948
0.195818
0.119974
0.11867
0.145446
0.128216
0.0143923
2.11957e-14
7.11652e-24
4.52765e-24
2.68945e-23
2.75822e-24
0.234728
0.206109
0.180771
0.168362
0.177079
0.142123
0.0999932
0.0496318
0.00286325
7.047e-11
8.46717e-12
7.16994e-11
8.95082e-11
5.79719e-06
-1.00901e-24
-6.34053e-24
1.46009e-24
3.79809e-11
6.28191e-07
7.55512e-06
4.15854e-05
1.86517e-05
4.35334e-06
-5.13366e-10
-8.85952e-11
3.93649e-05
6.38223e-05
-4.79877e-08
-1.46541e-10
-7.8969e-19
-1.34642e-07
2.49367e-07
4.32733e-05
8.59487e-05
0.0001171
0.00011783
0.000112517
0.000102912
9.10686e-05
3.67077e-05
0.000156636
0.000219623
0.000319661
0.000358601
0.000270129
0.000154819
0.000255154
0.000370816
0.000615761
0.000765125
0.000765114
0.000765077
0.000737641
0.000540947
0.00076738
0.00163149
0.00271093
0.0037248
0.0043786
0.00425698
0.00327775
0.00226608
0.000939447
0.000391594
0.000793666
0.00328636
0.00870898
0.00962296
0.00683094
0.000295708
0.000552457
0.000603226
0.000580666
0.000674012
0.000723637
0.000518899
0.000200393
0.000109096
0.00367745
0.00860042
0.00873074
0.00873068
0.00873074
0.00873068
0.00872415
0.0020986
0.000339848
0.00273215
0.0148344
0.0167656
0.0167888
0.0167655
2.98275e-05
3.19939e-05
1.45439e-07
5.44461e-09
3.07071e-06
2.72244e-05
1.38848e-07
5.44419e-09
1.25027e-08
8.49519e-06
0.00140179
0.00605292
0.00734956
0.00538281
0.00433872
0.00219652
7.24376e-05
0.000362054
0.00367025
0.00761678
0.0124213
0.0108037
0.00540872
1.67179e-08
9.05413e-08
5.37408e-08
6.81796e-08
6.80997e-08
5.7468e-10
5.86318e-10
5.74962e-10
7.85417e-10
1.25818e-08
1.69955e-07
2.32763e-08
2.04714e-07
2.60166e-07
2.64419e-07
2.69342e-07
5.66424e-07
5.27319e-07
1.79454e-15
1.78648e-15
1.79454e-15
2.77753e-15
3.04446e-15
1.67248e-08
5.62814e-08
1.15138e-07
1.15707e-07
1.1387e-07
8.09367e-08
3.76932e-07
8.32261e-07
1.83366e-07
2.07811e-08
5.13573e-09
1.97863e-08
3.56317e-07
8.52442e-07
5.97283e-06
7.53601e-06
7.78163e-06
8.01582e-06
8.00615e-06
1.98335e-06
3.72803e-07
2.7532e-08
7.65676e-08
1.37608e-08
1.4088e-08
4.70511e-08
4.85929e-08
2.08222e-08
1.22822e-06
6.69336e-06
8.91191e-06
4.28307e-06
1.51276e-08
6.43191e-09
1.8979e-07
3.39583e-06
6.58924e-06
7.56229e-06
7.54976e-06
5.17659e-06
5.73206e-07
1.78242e-08
1.82054e-08
4.51977e-08
2.36733e-07
2.93816e-07
9.22174e-09
5.37565e-09
5.51093e-09
2.00204e-08
2.16311e-08
4.79327e-06
8.90942e-06
8.89753e-06
7.89835e-06
2.08607e-06
4.70786e-06
9.31304e-06
4.22608e-06
7.53583e-08
7.50711e-08
7.53584e-08
7.23702e-08
2.19538e-06
5.02942e-06
1.53699e-06
3.57837e-07
1.30488e-07
1.1632e-07
7.28661e-09
5.38242e-09
1.2142e-08
5.30952e-08
1.32092e-07
3.57993e-06
8.50072e-06
7.27495e-06
4.75994e-06
8.97973e-06
1.45814e-05
1.52706e-05
1.47863e-05
6.01785e-06
6.70201e-06
3.28804e-06
3.89517e-06
1.56881e-05
1.85078e-05
8.58277e-06
2.90153e-07
1.52296e-07
3.49312e-07
7.27304e-09
5.4788e-09
1.71239e-08
6.28523e-08
1.65169e-07
1.78324e-08
1.9549e-07
3.33365e-09
3.32088e-09
8.60161e-06
1.80417e-05
1.81045e-05
1.81085e-05
1.81045e-05
1.81085e-05
1.76418e-05
1.33514e-05
1.70742e-05
1.93124e-05
1.63732e-05
1.60914e-06
2.43862e-07
1.44025e-06
6.75862e-09
4.71683e-09
1.39894e-08
2.79096e-08
3.77251e-08
3.69221e-09
3.83181e-09
3.73069e-09
5.10005e-09
8.08948e-10
2.30761e-06
7.03219e-06
9.1867e-06
1.45244e-05
1.56917e-05
8.47689e-06
6.47867e-10
8.56983e-06
1.93168e-05
1.85998e-05
1.3852e-05
1.90919e-06
9.31408e-07
8.60277e-09
3.55793e-09
7.32064e-09
9.87764e-09
1.04684e-09
3.41663e-09
6.858e-09
7.24256e-09
1.03401e-08
7.90346e-10
7.93502e-10
8.00937e-10
6.52015e-10
6.50351e-10
6.49236e-10
6.47867e-10
6.46106e-10
6.43767e-10
7.04246e-06
1.81514e-05
1.73314e-05
1.0577e-05
7.98446e-10
1.57498e-08
1.99051e-09
3.34133e-09
3.68576e-09
1.03652e-09
3.21756e-09
3.96526e-09
2.31723e-09
1.15569e-09
7.89393e-10
7.90745e-10
7.8633e-10
7.83285e-10
7.82992e-10
7.84718e-10
8.84363e-10
8.92181e-10
6.4228e-10
6.40635e-10
3.63811e-07
7.46854e-06
2.31712e-06
9.71257e-10
2.04299e-08
1.18844e-09
1.45704e-09
1.53951e-09
7.49453e-10
4.48229e-10
3.44783e-10
3.49557e-10
5.56345e-10
7.40699e-10
8.39477e-10
9.03253e-10
1.20023e-09
1.28423e-09
1.56417e-09
1.82467e-09
1.45928e-09
8.00514e-10
6.39011e-10
4.65627e-10
4.44122e-10
4.46005e-10
1.90994e-07
2.04158e-08
7.49487e-10
5.97969e-10
6.38607e-10
4.59647e-10
3.61807e-10
3.21088e-10
3.17259e-10
3.7393e-10
4.69107e-10
5.73712e-10
7.87013e-10
1.15405e-09
1.47367e-09
1.72922e-09
1.72952e-09
1.31225e-09
9.95199e-10
1.28461e-09
1.80308e-09
3.01771e-09
1.10921e-08
1.73041e-08
2.17494e-08
5.10873e-10
3.19178e-10
3.55832e-10
2.9009e-10
2.4708e-10
2.09506e-10
1.81419e-10
1.72351e-10
1.5871e-10
1.81784e-10
2.45958e-10
3.36769e-10
4.38667e-10
5.40179e-10
5.89005e-10
4.96851e-10
4.61141e-10
6.17669e-10
9.68132e-10
1.38345e-09
1.57265e-09
1.80892e-09
2.17283e-08
4.39485e-10
2.39067e-10
2.29418e-10
1.91599e-10
1.56136e-10
1.22414e-10
1.01434e-10
8.38916e-11
7.37542e-11
7.64604e-11
8.95029e-11
1.11048e-10
1.39563e-10
1.68189e-10
1.89463e-10
1.95228e-10
1.92347e-10
2.25683e-10
3.3432e-10
5.69553e-10
1.03761e-09
1.60149e-09
2.35195e-08
2.33823e-10
2.3086e-10
1.9222e-10
1.66605e-10
1.4698e-10
1.29485e-10
1.04704e-10
7.70221e-11
5.28742e-11
4.05425e-11
3.60137e-11
3.85038e-11
4.59188e-11
5.63405e-11
6.6909e-11
7.52325e-11
8.23512e-11
9.68343e-11
1.34329e-10
2.19674e-10
3.96544e-10
7.52035e-10
2.36649e-08
3.12694e-10
2.5601e-10
2.29765e-10
2.39221e-10
2.39381e-10
2.13806e-10
1.70002e-10
1.16606e-10
6.86651e-11
3.98751e-11
2.47031e-11
1.76619e-11
1.60601e-11
1.80175e-11
2.18386e-11
2.65541e-11
3.22157e-11
4.0653e-11
5.76829e-11
9.24543e-11
1.7419e-10
2.69929e-10
2.58883e-08
2.74634e-10
2.7484e-10
3.01337e-10
3.07778e-10
3.15388e-10
3.02375e-10
2.56095e-10
1.81792e-10
1.01168e-10
5.54007e-11
3.05811e-11
1.57448e-11
8.62374e-12
6.4199e-12
6.82152e-12
8.63614e-12
1.15601e-11
1.60723e-11
2.34431e-11
3.79091e-11
6.22538e-11
1.15088e-10
2.66262e-08
3.44998e-10
2.91823e-10
3.45623e-10
3.80252e-10
4.18917e-10
4.2488e-10
3.87798e-10
2.92214e-10
1.56811e-10
8.02671e-11
4.36707e-11
2.16478e-11
9.6628e-12
4.21781e-12
2.62019e-12
2.75234e-12
3.87998e-12
6.02079e-12
9.74601e-12
1.61038e-11
3.15554e-11
4.61722e-11
3.05131e-08
3.00534e-10
3.00576e-10
3.95663e-10
4.33554e-10
5.00229e-10
5.26026e-10
5.37092e-10
4.47084e-10
2.39783e-10
1.12127e-10
6.12914e-11
3.13001e-11
1.38604e-11
5.35854e-12
1.98716e-12
1.10097e-12
1.32011e-12
2.18443e-12
3.72366e-12
6.57391e-12
1.12208e-11
2.19595e-11
3.18613e-08
7.79025e-10
3.21265e-10
3.88266e-10
3.82883e-10
4.09066e-10
4.91282e-10
6.74755e-10
6.2475e-10
3.55287e-10
1.48513e-10
8.01676e-11
4.27214e-11
1.98152e-11
7.78313e-12
2.65847e-12
8.09915e-13
4.8832e-13
7.22514e-13
1.32457e-12
2.37345e-12
5.64297e-12
8.14053e-12
3.90249e-08
2.99152e-10
2.58318e-10
2.6455e-10
2.48371e-10
2.46761e-10
2.46675e-10
8.26499e-10
7.72429e-10
4.99329e-10
1.873e-10
9.68169e-11
5.36229e-11
2.63381e-11
1.10547e-11
3.91054e-12
1.25363e-12
2.89611e-13
2.4374e-13
4.27722e-13
9.11751e-13
1.49351e-12
3.36936e-12
3.75941e-08
9.13921e-10
2.45067e-10
1.85649e-09
5.56392e-08
2.28974e-07
5.65118e-08
8.16865e-10
8.35433e-10
6.51508e-10
2.27566e-10
1.07811e-10
6.13961e-11
3.19078e-11
1.44104e-11
5.43322e-12
1.67135e-12
4.44542e-13
1.17357e-13
1.35132e-13
2.51675e-13
6.80242e-13
1.01238e-12
5.56659e-08
2.44941e-10
2.4494e-10
1.53702e-07
6.44011e-07
1.12673e-06
7.76399e-07
8.17978e-10
8.17853e-10
8.17133e-10
2.84198e-10
1.10677e-10
6.38155e-11
3.48163e-11
1.68558e-11
6.96352e-12
2.32385e-12
6.44825e-13
1.03494e-13
4.82983e-14
9.12176e-14
1.60337e-13
3.55893e-13
6.15707e-08
5.15573e-10
2.58408e-08
3.03795e-07
9.61302e-07
1.17472e-06
1.09656e-06
5.85561e-09
8.19424e-10
9.02196e-10
2.95906e-10
1.04405e-10
6.00548e-11
3.39688e-11
1.75146e-11
7.90253e-12
2.95639e-12
8.59216e-13
1.94491e-13
2.46227e-14
2.35837e-14
6.74308e-14
1.03225e-13
6.95477e-08
4.70684e-09
6.3579e-08
3.05289e-07
9.59395e-07
1.1218e-06
5.3663e-07
1.1908e-09
1.20327e-09
9.83738e-10
2.77167e-10
9.02292e-11
5.12654e-11
2.96358e-11
1.6014e-11
7.86911e-12
3.28899e-12
1.08967e-12
2.8034e-13
2.99501e-14
8.31589e-15
1.23028e-14
3.41757e-14
6.46339e-08
4.56444e-09
3.62279e-08
2.82725e-07
4.07123e-07
4.3752e-07
3.47264e-10
3.10811e-09
2.91632e-09
8.97488e-10
2.31792e-10
7.10689e-11
3.974e-11
2.31031e-11
1.28087e-11
6.73717e-12
3.15611e-12
1.16405e-12
3.33847e-13
5.08398e-14
4.7722e-15
4.50553e-15
7.88716e-15
1.0295e-07
4.56377e-09
1.57603e-08
6.71736e-08
1.92823e-10
1.90827e-10
3.54295e-10
4.0169e-09
2.90163e-09
6.67734e-10
1.67186e-10
5.06113e-11
2.79658e-11
1.60511e-11
8.87245e-12
4.89351e-12
2.53478e-12
1.07788e-12
3.39417e-13
7.50212e-14
4.64626e-15
1.04939e-15
2.33758e-15
1.00901e-07
4.39971e-09
2.39962e-09
5.35871e-09
5.21671e-10
4.31342e-09
1.36835e-09
3.23091e-09
1.52918e-09
4.08096e-10
1.04109e-10
3.1962e-11
1.77949e-11
9.88919e-12
5.27543e-12
2.93572e-12
1.65052e-12
8.13194e-13
3.04458e-13
7.85419e-14
7.01434e-15
5.51576e-16
5.15487e-16
1.66625e-07
2.24303e-08
2.38757e-09
2.38556e-09
2.27206e-09
7.66124e-09
2.4426e-09
1.53277e-09
4.94092e-10
1.99186e-10
5.12754e-11
1.76723e-11
1.01642e-11
5.41776e-12
2.69897e-12
1.43912e-12
8.40309e-13
4.70075e-13
2.13436e-13
6.64694e-14
9.22871e-15
4.23352e-16
1.39313e-16
1.6975e-07
7.84743e-08
1.73411e-08
1.91995e-08
4.83792e-09
4.32934e-09
2.37615e-09
8.58313e-10
2.28412e-10
7.34031e-11
1.92761e-11
8.48881e-12
5.14154e-12
2.63684e-12
1.19621e-12
5.72153e-13
3.21983e-13
1.95634e-13
1.0756e-13
4.31409e-14
8.49569e-15
4.91114e-16
4.24939e-17
1.7043e-07
1.59407e-07
9.26146e-08
4.10743e-08
1.01452e-08
3.02818e-09
1.94641e-09
8.39301e-10
2.05938e-10
2.59433e-11
5.8861e-12
3.47916e-12
2.22566e-12
1.12043e-12
4.63772e-13
1.86687e-13
9.05679e-14
5.48398e-14
3.65018e-14
1.96609e-14
6.23258e-15
4.66964e-16
2.01033e-17
1.53097e-07
1.63651e-07
9.21766e-08
3.60579e-08
6.2188e-09
3.63861e-09
1.67015e-09
5.78288e-10
1.26502e-10
1.38572e-11
1.97525e-12
1.17408e-12
7.85235e-13
3.94649e-13
1.53105e-13
5.12794e-14
1.91039e-14
1.00977e-14
7.66521e-15
6.06658e-15
2.66084e-15
3.62148e-16
1.88431e-17
1.05997e-07
1.4556e-07
7.07608e-08
2.21803e-08
6.96841e-09
2.57211e-09
9.01086e-10
2.40597e-10
4.0102e-11
3.46999e-12
3.63264e-13
2.60949e-13
1.89406e-13
9.89308e-14
3.70663e-14
1.06042e-14
2.78757e-15
1.09833e-15
1.0116e-15
1.21895e-15
8.89363e-16
2.21747e-16
2.3034e-17
4.33409e-08
6.55209e-08
2.86773e-08
5.50482e-09
2.01782e-09
6.74987e-10
1.92833e-10
3.53819e-11
3.57276e-12
1.58128e-13
2.69287e-14
2.94862e-14
2.38725e-14
1.32636e-14
5.03841e-15
1.27095e-15
2.44847e-16
6.5257e-17
8.00904e-17
1.69167e-16
2.4235e-16
1.12676e-16
1.57277e-17
0.9185
0.914171
0.917239
0.91766
0.913673
0.910558
0.914013
0.910376
0.188414
0.189909
0.219829
0.258674
1.0128e-23
3.41417e-26
4.18325e-24
1.64923e-22
9.48969e-06
1.30678e-07
7.19313e-05
0.000947776
9.31192e-05
9.84446e-05
0.000164382
0.000177371
0.00430201
0.00401523
0.00449472
0.00279712
0.0127776
0.0113601
0.0114422
0.0114445
0.00248578
0.00267107
0.00558405
0.00697464
1.59427e-14
9.46352e-15
2.56717e-15
3.74043e-15
7.37856e-08
6.65984e-08
2.90143e-08
1.53969e-08
2.94332e-07
2.391e-07
7.6949e-08
1.43343e-08
1.17368e-07
1.5484e-07
3.1557e-07
2.73944e-07
3.34053e-07
1.23925e-06
1.7433e-06
7.87016e-07
2.41765e-06
1.80768e-06
1.05687e-06
1.00941e-06
2.55295e-06
2.55312e-06
1.14511e-06
1.97858e-07
5.45852e-07
8.33116e-07
5.54549e-07
1.79396e-07
1.94271e-08
5.92595e-08
8.4656e-08
4.40198e-08
7.39372e-09
4.18666e-09
7.30814e-09
4.45468e-08
1.52986e-08
5.2182e-09
5.22611e-09
1.76846e-08
4.48968e-09
6.45644e-09
7.89713e-09
8.87685e-09
2.34721e-09
3.07898e-09
3.48704e-09
4.18594e-09
1.06021e-09
1.25011e-09
1.58617e-09
1.82701e-09
4.30773e-10
5.57173e-10
6.37538e-10
8.17114e-10
1.66462e-10
2.0426e-10
2.88135e-10
3.42399e-10
7.78292e-11
1.03447e-10
1.20949e-10
1.57618e-10
3.27089e-11
4.15387e-11
6.21849e-11
7.24194e-11
1.43322e-11
1.95072e-11
2.2871e-11
3.34893e-11
5.14248e-12
6.55982e-12
1.00728e-11
1.16847e-11
1.77307e-12
2.55845e-12
2.97105e-12
4.47663e-12
5.54677e-13
7.0948e-13
1.02736e-12
1.17396e-12
1.84707e-13
2.4443e-13
2.82804e-13
4.09077e-13
4.83773e-14
6.07612e-14
9.07537e-14
1.00143e-13
1.62904e-14
1.92465e-14
2.31895e-14
3.13641e-14
3.6301e-15
4.68763e-15
6.86187e-15
7.81243e-15
1.05081e-15
1.3094e-15
1.6222e-15
2.15087e-15
2.35269e-16
3.21418e-16
4.5665e-16
5.11738e-16
5.25915e-17
6.97685e-17
9.06005e-17
1.23563e-16
9.31215e-18
1.35861e-17
1.98766e-17
2.37201e-17
1.85245e-18
2.37144e-18
3.27562e-18
5.04677e-18
4.22226e-19
4.22379e-19
6.43168e-19
8.64723e-19
2.27036e-19
9.3942e-20
1.0747e-19
1.33624e-19
0.981534
0.99119
0.991791
0.844799
0.697919
0.900351
0.97084
0.970841
0.956286
0.630522
0.568976
0.727416
0.643301
0.464222
0.796845
0.895598
0.912566
0.900106
0.712884
0.843304
0.718917
0.633467
0.381012
0.539679
0.922993
0.968271
0.9672
0.835776
0.236513
0.0597649
0.0706205
0.0494244
0.309355
0.811393
0.912702
0.912768
0.894737
0.863827
0.119908
9.49869e-05
0.00607204
0.088635
0.304086
0.428899
0.639445
0.714406
0.50159
0.0346352
0.000139277
0.000139208
0.000139099
0.070787
0.288737
0.543743
0.594529
0.40881
0.364321
0.000579784
8.98398e-05
1.91768e-10
9.01782e-15
-5.64824e-29
1.56659e-17
0.104022
0.497076
0.475737
0.0847603
0.000139198
0.000139135
0.00013911
0.000139094
0.00013908
0.0123987
0.0197249
0.00449975
0.00245666
0.00333729
0.0023148
3.6611e-05
1.74427e-06
1.06525e-09
2.77714e-24
1.73028e-16
0.275172
0.473911
0.287844
0.0107728
0.000156757
0.000139135
0.000139084
0.000139065
0.000139051
0.00091734
0.00196933
0.00309423
0.00300616
0.0130635
0.00640717
0.000267997
9.18258e-05
8.7519e-06
6.6013e-10
0.06493
0.267219
0.268102
0.0540994
0.000152941
0.000177672
0.000139067
0.000139051
0.000139038
0.000139029
0.00242007
0.0033746
0.000789394
0.0153102
0.01901
0.00924668
0.000564386
0.00106058
0.00462286
0.0013875
0.00532409
0.0350251
0.0267746
0.00743183
0.00224101
0.002061
0.00161946
0.000328917
0.00013906
0.000993136
0.0033734
0.00201334
0.00697042
0.0189692
0.0190102
0.0125648
0.00287996
0.00122976
0.000896445
0.000693129
0.000696201
0.000774219
0.00217577
0.00258193
0.00375031
0.00263699
0.0013956
0.000139079
0.000758725
0.0033795
0.00322942
0.000708763
0.00444239
0.0123313
0.0180775
0.0181056
0.00949316
0.00166079
0.00146884
0.00185664
0.00110699
6.37029e-06
0.00206062
0.00382986
0.00382672
0.00305124
0.000934325
0.000935936
0.00195812
0.00011692
5.33751e-05
4.06431e-11
2.18962e-06
0.00262199
0.00987819
0.0201773
0.020225
0.0182882
0.00634823
0.000437341
2.41726e-07
7.73416e-05
0.0020063
0.00382983
0.00308422
0.00091044
0.000861052
3.86097e-05
2.89659e-14
-3.11703e-12
3.99498e-13
4.10426e-11
3.7458e-09
1.58735e-06
8.78879e-06
0.00244513
0.00918859
0.00719942
0.00156851
2.54411e-07
2.11123e-07
8.11677e-05
0.000721679
0.000542864
0.000183765
9.65277e-05
3.52563e-09
6.08074e-08
-8.08764e-11
4.86779e-06
2.96177e-06
8.71046e-07
1.48576e-10
1.11878e-11
7.88567e-12
0.000368802
0.00113078
0.000394848
2.46067e-06
4.14741e-08
-8.96339e-08
1.96345e-07
3.13021e-07
3.67899e-13
-2.45891e-09
3.36041e-09
6.32034e-08
9.83559e-06
3.99513e-05
2.05219e-05
1.5457e-06
7.43182e-10
7.08934e-08
4.28938e-08
5.23247e-09
1.19928e-07
1.61228e-08
1.14016e-06
1.24065e-05
1.28839e-05
5.26832e-06
1.28283e-06
3.77965e-06
1.54328e-07
3.53437e-09
6.33212e-06
4.49624e-05
3.92492e-05
2.10521e-05
1.79029e-07
7.40319e-07
8.01745e-07
5.94798e-09
4.90891e-09
5.77345e-09
7.16577e-06
2.08571e-05
2.13797e-05
2.13798e-05
2.08774e-05
1.75887e-05
4.21697e-06
1.05888e-06
3.60865e-07
2.17155e-05
4.88218e-05
4.88012e-05
5.85266e-06
1.84955e-07
3.91903e-06
4.5229e-06
9.16428e-07
4.31988e-09
7.43821e-06
2.18402e-05
2.20882e-05
2.22391e-05
2.14496e-05
1.41324e-05
1.34367e-05
6.55259e-06
6.32067e-06
9.17793e-06
9.38021e-06
4.60978e-05
4.87682e-05
6.12647e-06
4.97761e-07
2.26375e-06
5.16837e-06
2.68974e-06
4.44475e-09
3.66956e-06
1.21694e-05
1.20762e-05
1.10062e-05
1.04558e-05
8.30187e-06
5.13496e-06
7.91583e-06
9.72032e-06
9.9859e-06
2.48781e-06
3.13928e-05
3.67153e-05
1.4349e-06
1.5658e-06
4.98377e-06
8.69234e-06
5.18655e-06
5.23887e-09
5.3617e-09
5.29255e-09
4.65887e-08
3.08604e-06
2.56216e-06
1.99072e-06
3.10126e-06
1.09411e-05
1.36879e-05
1.00029e-05
1.83373e-06
9.20856e-06
8.88118e-06
4.11204e-06
7.23166e-07
3.70352e-06
8.61938e-06
2.0561e-05
3.9491e-05
4.24066e-05
4.24257e-05
4.63822e-05
3.27556e-05
7.27739e-06
1.39408e-06
8.80792e-07
9.12601e-06
1.37168e-05
3.94875e-06
2.30876e-07
3.32534e-09
3.31301e-09
2.46511e-07
7.05645e-07
5.37038e-07
5.55734e-06
1.97887e-05
3.35561e-05
3.59116e-05
4.32024e-05
5.25024e-05
5.24777e-05
4.59189e-05
1.17123e-06
7.03038e-07
5.97172e-06
1.271e-05
2.09395e-06
1.52637e-08
2.12765e-08
4.39258e-09
3.92914e-09
6.68172e-08
5.38972e-07
8.4543e-07
3.88292e-06
9.47819e-06
2.0569e-06
3.83145e-06
1.1335e-05
4.36971e-05
4.607e-05
3.35534e-05
2.24599e-06
5.85636e-06
1.66459e-06
2.93217e-07
8.96189e-09
1.07516e-08
7.77826e-09
3.92647e-09
1.53528e-09
1.19146e-07
3.55803e-07
7.45973e-07
1.01695e-07
9.66775e-11
6.22083e-11
9.65985e-11
1.90404e-05
4.53549e-05
4.77982e-05
2.15307e-05
5.19063e-06
9.3789e-07
9.77992e-08
4.71109e-09
6.48451e-09
7.38452e-09
4.14477e-09
1.53851e-09
1.53536e-09
2.25703e-08
1.9813e-07
3.45827e-07
1.70407e-07
2.92741e-08
6.22874e-11
4.73797e-06
4.75142e-05
4.77965e-05
2.26701e-05
5.3025e-06
1.046e-08
9.17485e-08
2.20167e-09
3.24904e-09
4.45206e-09
4.40551e-09
4.22143e-09
7.45338e-09
1.86702e-07
5.63847e-07
5.6537e-07
5.52144e-07
2.1325e-07
9.65985e-11
2.07655e-10
2.85666e-05
3.76977e-05
1.90699e-05
1.66931e-06
7.51883e-09
2.01274e-07
1.02044e-09
1.71857e-09
2.96384e-09
4.88165e-09
7.08378e-09
2.27217e-08
1.67038e-07
3.64957e-07
4.57574e-07
3.7352e-07
1.53353e-07
4.12628e-09
1.3839e-09
6.86691e-07
1.49054e-06
2.12531e-06
7.03397e-08
7.51468e-09
2.37713e-07
4.41176e-10
7.5915e-10
1.36882e-09
2.51681e-09
4.49568e-09
7.77167e-09
2.08338e-08
9.72073e-08
1.34125e-07
9.63115e-08
1.98757e-08
4.67709e-09
1.52989e-09
1.06785e-09
1.11904e-09
1.19197e-09
2.76879e-09
1.50872e-08
2.37651e-07
1.95541e-10
3.18617e-10
5.26524e-10
8.74174e-10
1.42408e-09
2.0069e-09
1.46881e-09
1.1599e-09
1.1477e-09
2.83065e-09
7.32944e-09
4.37696e-09
7.7835e-09
4.00439e-08
3.69305e-08
1.87848e-08
5.00394e-09
4.77812e-08
2.20364e-07
9.25604e-11
1.49981e-10
2.43843e-10
3.95378e-10
6.31908e-10
9.68955e-10
1.30503e-09
1.74714e-09
2.48433e-09
4.13796e-09
6.65935e-09
7.35488e-09
2.55185e-08
7.56118e-08
7.62085e-08
5.10151e-08
8.13719e-09
3.55522e-08
2.21009e-07
4.04484e-11
6.78381e-11
1.14045e-10
1.94522e-10
3.31068e-10
5.61956e-10
9.34883e-10
1.53588e-09
2.54429e-09
4.30713e-09
7.10217e-09
1.1595e-08
3.3256e-08
8.1651e-08
7.19315e-08
3.97982e-08
8.17385e-09
1.14178e-07
1.31505e-07
1.59477e-11
2.74381e-11
4.79181e-11
8.61118e-11
1.55995e-10
2.8745e-10
5.31753e-10
9.77603e-10
1.80348e-09
3.3941e-09
6.34596e-09
1.15951e-08
2.34825e-08
4.77588e-08
2.51923e-08
1.68051e-08
1.74976e-08
1.51458e-07
1.2343e-07
5.4789e-12
9.83081e-12
1.76353e-11
3.27499e-11
6.33472e-11
1.2872e-10
2.62193e-10
5.34849e-10
1.08662e-09
2.22585e-09
4.58674e-09
9.12051e-09
1.61881e-08
1.19037e-08
1.09477e-08
1.0824e-08
4.28427e-08
1.54911e-07
1.22712e-07
1.83095e-12
3.00023e-12
5.45274e-12
1.03295e-11
2.09542e-11
4.57615e-11
1.07575e-10
2.53386e-10
5.8255e-10
1.30016e-09
2.81838e-09
5.9353e-09
9.74181e-09
8.03474e-09
1.22294e-08
2.82744e-08
7.00499e-08
1.06498e-07
1.65304e-07
4.88964e-13
8.25759e-13
1.35813e-12
2.34037e-12
4.50936e-12
8.88195e-12
1.93871e-11
4.93071e-11
1.45649e-10
4.21496e-10
9.87415e-10
1.73321e-09
3.96206e-09
5.55739e-09
1.16421e-08
3.20124e-08
4.45527e-08
1.49346e-08
3.59998e-07
1.43658e-13
2.01326e-13
3.03732e-13
4.69413e-13
8.02091e-13
1.32121e-12
2.21802e-12
4.87218e-12
1.75867e-11
6.12474e-11
1.72987e-10
2.96913e-10
6.93809e-10
2.82664e-09
5.06159e-09
9.67644e-09
2.92217e-08
7.9116e-09
3.96818e-07
3.53188e-14
4.95548e-14
6.85533e-14
9.7857e-14
1.48324e-13
2.37837e-13
3.71315e-13
6.18748e-13
1.7416e-12
6.7241e-12
2.44049e-11
5.7458e-11
8.82363e-11
4.8924e-10
1.85976e-09
2.69766e-09
4.54649e-09
8.63425e-09
3.96825e-07
9.62406e-15
1.22212e-14
1.59224e-14
2.14479e-14
3.10016e-14
4.94542e-14
8.69974e-14
1.70152e-13
3.95874e-13
1.29319e-12
4.8389e-12
1.64051e-11
3.95878e-11
1.71134e-10
9.88962e-10
2.03908e-09
4.61167e-09
1.17878e-08
3.74027e-07
2.36753e-15
3.05902e-15
3.86648e-15
5.08824e-15
7.33113e-15
1.20065e-14
2.30972e-14
5.32274e-14
1.39998e-13
3.77766e-13
1.34989e-12
6.14352e-12
2.28656e-11
7.27729e-11
6.72015e-10
2.44859e-09
5.67619e-09
1.28545e-08
6.14237e-08
5.86708e-16
7.56679e-16
9.68081e-16
1.3303e-15
2.07605e-15
3.72291e-15
7.75131e-15
1.91271e-14
5.55826e-14
1.73134e-13
6.31758e-13
2.41326e-12
1.07283e-11
3.87359e-11
3.14178e-10
2.02118e-09
5.76819e-09
1.09293e-08
4.63085e-10
1.37013e-16
1.80959e-16
2.4149e-16
3.66369e-16
6.71508e-16
1.42754e-15
3.32544e-15
8.36309e-15
2.35866e-14
7.48313e-14
2.62698e-13
9.47325e-13
4.27017e-12
2.04967e-11
9.83918e-11
9.13317e-10
3.59205e-09
5.65385e-09
4.50609e-10
3.03859e-17
3.95864e-17
5.52207e-17
9.55924e-17
2.13203e-16
5.52364e-16
1.50324e-15
4.05955e-15
1.09264e-14
2.989e-14
9.02799e-14
3.06401e-13
1.25965e-12
6.18443e-12
3.1565e-11
2.03218e-10
8.51596e-10
8.77576e-10
4.50654e-10
5.8001e-18
7.82224e-18
1.15854e-17
2.25491e-17
6.01898e-17
1.91712e-16
6.23681e-16
1.91792e-15
5.51053e-15
1.5261e-14
4.20804e-14
1.27118e-13
3.80714e-13
1.8781e-12
1.03192e-11
5.05209e-11
9.5358e-11
2.92219e-10
2.75444e-10
1.01583e-18
1.34344e-18
2.00256e-18
4.08648e-18
1.23116e-17
4.71728e-17
1.88095e-16
7.00376e-16
2.34141e-15
7.08921e-15
2.00416e-14
5.69524e-14
1.64189e-13
5.77209e-13
3.04077e-12
1.37493e-11
3.59374e-11
9.47704e-11
1.33273e-10
1.53184e-19
1.91735e-19
2.72729e-19
5.31091e-19
1.58727e-18
6.91487e-18
3.44973e-17
1.62802e-16
6.76143e-16
2.45928e-15
7.84558e-15
2.30245e-14
6.20312e-14
1.66746e-13
5.60499e-13
2.98521e-12
5.35938e-12
1.6321e-11
3.40491e-11
)
;

boundaryField
{
    leftWall
    {
        type            zeroGradient;
    }
    rightWall
    {
        type            zeroGradient;
    }
    lowerWall
    {
        type            zeroGradient;
    }
    atmosphere
    {
        type            inletOutlet;
        inletValue      uniform 0;
        value           nonuniform List<scalar> 
46
(
4.33409e-08
6.55209e-08
2.86773e-08
0
0
0
0
0
0
0
0
0
0
0
0
0
0
0
0
0
0
0
0
0
0
0
0
0
0
0
0
0
0
3.44973e-17
1.62802e-16
6.76143e-16
2.45928e-15
7.84558e-15
2.30245e-14
6.20312e-14
1.66746e-13
5.60499e-13
2.98522e-12
5.35938e-12
1.6321e-11
3.40491e-11
)
;
    }
    defaultFaces
    {
        type            empty;
    }
}


// ************************************************************************* //
