/*--------------------------------*- C++ -*----------------------------------*\
| =========                 |                                                 |
| \\      /  F ield         | OpenFOAM: The Open Source CFD Toolbox           |
|  \\    /   O peration     | Version:  2312                                  |
|   \\  /    A nd           | Website:  www.openfoam.com                      |
|    \\/     M anipulation  |                                                 |
\*---------------------------------------------------------------------------*/
FoamFile
{
    version     2.0;
    format      ascii;
    arch        "LSB;label=32;scalar=64";
    class       volScalarField;
    location    "4.05";
    object      alpha.galistan;
}
// * * * * * * * * * * * * * * * * * * * * * * * * * * * * * * * * * * * * * //

dimensions      [0 0 0 0 0 0 0];

internalField   nonuniform List<scalar> 
2268
(
1
1
1
1
1
1
1
1
1
1
1
1
1
1
1
1
1
1
1
0.999996
0.999961
0.999953
0.999953
1
1
1
1
1
1
1
1
1
1
1
1
1
1
1
1
1
1
1
1
0.999995
0.999979
0.999976
1
1
1
1
1
1
1
1
1
1
1
1
1
1
1
1
0.999999
0.999999
0.999999
1
1
1
1
1
1
1
1
1
1
1
1
1
1
1
1
1
1
1
1
1
1
1
1
1
0.999999
0.999278
1
1
1
1
1
1
1
1
0.999998
0.999983
0.999983
0.999999
1
0.999999
1
0.999953
0.997696
0.99178
0.986893
0.98574
0.984469
0.97676
0.966711
0.991192
0.993453
0.99543
0.998801
0.999882
0.999922
0.9998
0.999755
0.999185
0.99348
0.976978
0.948207
0.906204
0.851874
0.782233
0.708969
0.637544
0.567057
0.49264
0.436126
0.395271
0.364694
0.34921
0.399077
0.428628
0.489395
0.562487
0.631955
0.675377
0.677983
0.640492
0.568878
0.458884
0.351511
0.257514
0.177055
0.112863
0.0604651
0.0256224
4.78324e-06
4.40941e-06
3.88327e-05
3.95885e-05
4.03762e-05
4.11629e-05
0.0058535
2.60409e-19
0.000130105
0.00213268
0.00853849
0.0199407
0.0307307
0.0318887
0.0213605
0.00255829
3.70754e-06
3.06063e-06
3.55915e-06
3.22503e-06
3.82147e-06
3.6876e-06
4.44975e-06
4.35707e-06
3.77267e-05
0.000128157
0.000113133
0.000166996
0.000210392
0.000205806
0.957728
0.957728
0.957444
0.957424
0.957404
0.957383
0.953448
0.954537
0.956011
0.956004
0.955996
0.955492
0.955602
0.95881
0.963214
0.963535
0.961984
0.961563
0.961558
0.85554
0.877804
0.871926
0.870708
0.891448
0.904189
0.937229
0.957814
0.957486
0.949005
0.952329
0.962174
0.964228
0.964228
0.964217
0.964194
0.963957
0.962373
0.957661
0.2951
0.207678
0.125862
0.137983
0.225622
0.359823
0.485186
0.589994
0.669531
0.667984
0.625829
0.644206
0.733039
0.772023
0.764378
0.762399
0.749334
0.706048
0.618684
0.000411059
0.000418518
0.0122614
0.00780315
0.00401833
0.00375602
0.0121779
0.0391171
0.072711
0.124129
0.180515
0.22789
0.25801
0.356259
0.449875
0.461507
0.423087
0.366848
0.347639
0.000616192
0.0158368
0.0274179
0.0325919
0.0247767
0.00703945
0.00427602
0.000144104
0.000127001
0.000146901
0.00170243
0.00119472
0.00121764
0.00621142
0.039659
0.067385
0.0514552
0.00872706
0.00133712
0.000491578
0.0111293
0.0308168
0.0501604
0.0500031
0.0394079
0.0108491
0.00171893
0.000146901
0.00148346
0.005981
0.00375292
0.00113951
0.00110381
0.00109892
0.00110258
0.00116813
0.00159513
0.00133761
0.00140812
2.24594e-05
1.86539e-05
0.0129972
0.0501912
0.0474492
0.0151216
0.00499924
0.00384074
0.00458875
0.00851387
0.00736433
0.00115084
0.00225331
0.00583075
0.00353426
0.00420467
0.00228641
0.00133712
0.00179871
0.00100709
0.000315172
0.000150584
0.028408
0.0348615
0.00799135
0.00287808
0.00234802
0.0109426
0.0125607
0.00350833
0.00120726
0.0150299
0.0185873
0.0116156
0.00434695
0.00213147
0.00134459
-9.53196e-18
3.16605e-10
-8.32837e-10
-4.45323e-09
-1.79368e-07
-1.64701e-07
4.22294e-06
3.51575e-05
7.85899e-05
5.55575e-05
6.3719e-05
8.62663e-05
1.1586e-05
0.000104119
0.000667734
0.00109722
0.000628145
0.000358299
0.000808643
0.00133434
0.000940427
0.000592613
0.000256118
2.71097e-05
6.62734e-10
1.98893e-07
1.68282e-05
7.33459e-05
8.22486e-05
8.32918e-05
8.71887e-05
7.65191e-05
2.10459e-05
1.24922e-05
1.1363e-05
1.14414e-05
1.14527e-05
0.00223265
0.00248135
0.00194296
0.000798422
0.00176063
0.00311784
0.0044224
0.00401295
0.00268161
0.000153444
6.26085e-05
2.42674e-07
7.74215e-06
6.38188e-05
0.000168217
0.00035665
0.000204563
7.06671e-05
0.000126581
0.000213567
0.000293389
0.000217316
0.000998628
0.00248135
0.00247814
0.000860896
0.00351796
0.00585298
0.00585022
0.00585225
0.00570227
0.00470169
0.000438112
0.000195617
0.000404687
0.0018232
0.00258725
0.00230382
0.000907528
7.06675e-05
7.06815e-05
0.000191496
0.000591627
0.00127236
0.00127249
0.00126098
0.00036883
3.23736e-05
0.000369657
0.00466884
0.0054986
0.00360416
0.00176067
0.000626927
0.000510445
0.000608209
0.000608066
0.00108447
0.002467
0.00259803
0.00259799
0.00238843
0.000351262
7.06676e-05
7.06687e-05
0.000231565
0.000337368
0.000296946
2.13629e-05
1.3277e-05
3.91339e-05
0.000780276
0.000132585
0.000384492
0.000171671
0.000171173
0.000213234
0.000214171
0.000383473
0.000417581
0.000285148
0.000355441
0.000628626
0.000684744
0.000606877
0.000290046
0.00017113
0.000116187
7.44497e-05
3.5811e-05
3.58975e-05
3.89184e-05
4.45321e-05
3.5258e-05
9.2845e-06
3.40071e-06
3.70385e-06
8.21731e-06
9.89291e-06
0.000111342
0.000197959
0.000112029
0.000142445
0.00021085
0.000374347
0.000455801
0.000406925
0.00040674
0.0004586
0.000588935
0.000545669
0.00028535
3.57379e-05
8.6414e-05
0.000313426
0.00043661
0.000400482
0.000223223
3.58566e-05
8.73181e-08
5.4158e-08
5.51399e-08
5.65619e-08
5.51339e-05
6.64197e-05
0.000164474
0.000294745
0.000368091
0.000423602
0.000446264
0.000465287
0.00064442
0.000754028
0.000755495
0.000459686
3.25915e-05
0.000305673
0.00102303
0.00103765
0.00103766
0.00100058
0.000285159
2.29091e-05
3.69663e-06
2.62054e-06
2.10401e-06
3.19151e-07
9.05315e-07
9.07138e-06
4.04218e-08
1.3348e-09
2.22584e-06
2.02184e-05
1.03342e-07
4.15866e-09
1.6494e-07
8.81913e-05
0.000111772
2.78444e-05
0.000103373
0.00034509
0.000661445
0.000923728
0.000647581
0.000263618
9.59524e-05
4.12764e-05
1.84909e-05
1.28351e-05
8.85764e-06
1.57671e-09
2.20326e-08
2.69492e-09
5.17482e-09
1.38975e-08
2.52352e-10
2.54308e-10
2.76797e-08
4.00611e-08
3.13924e-07
2.16859e-07
2.05476e-07
7.63624e-08
4.09638e-08
2.45175e-09
2.50154e-09
2.45175e-09
3.49963e-07
3.22567e-05
4.73827e-05
3.23477e-05
2.57155e-05
2.44689e-05
1.57853e-09
2.23073e-09
5.25168e-09
1.83569e-08
4.18044e-08
9.1242e-08
5.59656e-08
1.44902e-07
3.56033e-07
3.63272e-07
3.14526e-07
2.832e-07
2.2233e-07
9.0951e-07
2.12298e-06
2.12583e-06
1.88751e-06
1.12179e-06
2.0169e-12
2.2219e-12
2.19713e-12
2.20717e-12
1.2229e-05
1.57296e-09
2.97554e-09
4.52058e-09
3.97515e-08
1.6931e-07
1.91238e-07
1.10981e-07
3.65905e-07
3.68623e-07
2.79507e-07
4.28491e-08
6.79494e-07
1.34766e-06
1.34271e-06
1.31688e-06
1.63936e-06
1.16871e-06
1.57079e-07
1.98138e-12
2.01847e-12
7.14119e-10
8.98076e-11
1.05757e-10
1.50501e-09
3.18233e-09
1.06627e-08
6.66053e-08
1.87311e-07
1.90812e-07
7.48298e-08
7.48992e-08
1.25398e-07
7.6877e-08
4.29506e-08
4.4911e-08
1.23654e-07
1.8692e-08
-6.55244e-15
-2.79777e-11
8.37272e-19
6.82933e-11
8.75702e-08
6.13167e-09
1.14384e-08
1.32456e-07
4.45069e-07
1.44815e-09
3.60915e-09
1.36366e-08
4.77706e-08
6.51489e-08
1.68008e-08
1.69339e-08
9.06047e-08
1.2216e-07
6.25483e-08
5.97672e-08
2.72291e-07
6.72913e-07
6.09823e-07
2.00221e-07
2.06123e-08
6.53066e-08
5.62603e-07
6.22045e-07
1.04012e-07
6.49179e-08
4.69065e-07
4.89158e-07
1.38609e-09
3.20217e-09
8.89642e-09
8.19724e-09
1.69345e-09
1.69346e-09
1.90496e-08
8.4036e-08
7.80087e-08
5.03328e-08
9.73583e-08
1.00953e-06
1.00959e-06
1.00953e-06
3.52582e-07
3.13439e-08
7.03966e-07
1.14511e-06
1.20764e-06
7.79146e-07
5.90861e-08
7.66919e-10
7.67119e-10
1.23746e-09
2.20382e-09
3.69833e-09
1.67514e-09
1.70811e-09
3.02252e-09
1.37182e-08
2.41676e-09
2.41341e-09
4.99652e-09
8.95956e-08
4.89821e-07
8.87469e-07
5.45305e-07
8.58091e-08
1.22485e-07
8.54746e-07
1.62455e-06
1.6239e-06
1.29983e-06
5.48734e-07
6.51492e-08
4.89832e-09
1.07989e-09
1.51473e-09
2.00267e-09
1.65895e-09
1.77932e-09
2.5587e-09
1.8101e-09
2.1629e-09
4.11863e-09
9.09202e-09
5.91583e-09
4.95262e-10
4.85747e-10
4.86591e-10
5.00032e-10
8.08722e-08
2.11883e-07
9.46552e-07
1.3603e-06
1.37915e-06
1.31214e-06
8.7833e-07
8.82753e-10
9.11478e-10
9.70701e-10
1.30304e-09
1.36064e-09
1.59551e-09
1.81069e-09
1.80199e-09
2.97573e-09
5.58065e-09
5.9938e-09
1.06571e-09
4.85759e-10
4.86588e-10
6.7888e-10
1.79855e-09
5.48096e-10
5.47001e-10
5.48972e-10
5.50965e-10
3.54874e-07
1.00252e-06
1.03039e-06
7.64396e-07
8.40121e-10
7.13866e-10
9.51661e-10
1.09185e-09
1.39214e-09
1.5678e-09
1.50044e-09
1.85603e-09
2.14208e-09
1.67032e-09
9.11131e-10
5.59416e-10
5.51137e-10
1.01207e-09
1.53174e-09
5.54579e-10
5.4503e-10
5.46988e-10
5.49004e-10
5.51171e-10
5.53924e-10
3.92275e-07
2.31923e-07
7.91697e-10
4.81696e-10
6.6353e-10
7.70345e-10
9.69046e-10
1.05435e-09
1.03317e-09
9.2428e-10
7.76096e-10
6.96432e-10
5.27409e-10
5.02874e-10
4.55855e-10
3.88029e-10
3.95386e-10
5.35592e-10
5.43126e-10
6.09947e-10
7.34313e-10
9.00427e-10
1.06273e-09
1.09876e-09
1.51021e-09
7.59621e-10
3.33799e-10
4.20848e-10
4.77944e-10
5.17743e-10
5.27061e-10
4.99169e-10
4.28195e-10
4.03426e-10
3.5326e-10
3.39736e-10
2.97774e-10
2.57989e-10
2.4741e-10
2.55095e-10
2.72969e-10
3.0338e-10
3.90622e-10
6.44058e-10
1.12271e-09
1.63082e-09
1.67971e-09
2.23338e-09
7.32937e-10
2.10864e-10
2.32774e-10
2.33772e-10
2.24193e-10
2.0157e-10
1.64964e-10
1.52473e-10
1.31553e-10
1.24351e-10
1.19321e-10
1.07271e-10
9.41094e-11
8.61663e-11
8.48034e-11
8.82247e-11
9.66045e-11
1.15809e-10
1.65274e-10
2.70601e-10
4.267e-10
5.62653e-10
5.77377e-10
7.17786e-10
1.50081e-10
1.28056e-10
1.10711e-10
9.36913e-11
7.81137e-11
6.63982e-11
5.30657e-11
4.47126e-11
3.68858e-11
3.21216e-11
2.92717e-11
2.56785e-11
2.42462e-11
2.434e-11
2.58018e-11
2.87413e-11
3.38062e-11
4.31424e-11
6.0227e-11
8.78138e-11
1.26385e-10
1.87848e-10
7.08314e-10
9.75254e-11
6.97271e-11
6.19805e-11
6.08104e-11
5.7967e-11
4.81279e-11
3.52367e-11
2.24633e-11
1.37184e-11
9.5467e-12
7.38373e-12
6.34211e-12
5.88744e-12
6.18681e-12
7.10506e-12
8.64695e-12
1.08804e-11
1.40976e-11
1.9462e-11
2.84911e-11
4.5253e-11
6.00192e-11
7.06995e-10
7.34476e-11
4.8754e-11
5.59148e-11
7.09063e-11
7.6695e-11
6.59729e-11
4.86033e-11
2.87037e-11
1.43933e-11
6.9592e-12
3.42894e-12
1.9859e-12
1.50928e-12
1.52791e-12
1.88869e-12
2.52374e-12
3.44863e-12
4.74632e-12
6.58939e-12
9.61513e-12
1.38476e-11
2.23698e-11
7.06554e-10
6.4588e-11
4.66122e-11
7.25372e-11
1.08575e-10
1.25386e-10
1.03516e-10
7.87297e-11
4.59203e-11
2.23993e-11
1.0137e-11
4.19168e-12
1.65296e-12
7.15714e-13
4.6548e-13
5.07728e-13
7.03959e-13
1.04102e-12
1.57223e-12
2.38563e-12
3.57933e-12
6.0318e-12
7.87634e-12
7.23213e-10
6.37887e-11
5.42989e-11
1.15447e-10
1.68887e-10
2.04904e-10
1.55938e-10
1.20874e-10
6.97335e-11
3.44071e-11
1.57135e-11
6.48754e-12
2.43437e-12
8.28304e-13
2.87715e-13
1.65412e-13
1.95707e-13
3.08566e-13
5.07455e-13
8.09058e-13
1.28417e-12
1.93224e-12
3.35927e-12
7.33882e-10
7.59358e-11
7.64962e-11
1.70527e-10
2.70989e-10
3.8525e-10
3.21763e-10
1.73409e-10
9.54955e-11
4.83327e-11
2.25402e-11
9.52647e-12
3.69308e-12
1.26235e-12
3.76237e-13
1.13163e-13
6.22306e-14
8.53794e-14
1.5266e-13
2.70734e-13
4.51133e-13
9.23462e-13
1.2344e-12
7.67254e-10
9.1167e-11
1.42609e-10
4.1542e-10
6.56389e-10
6.74583e-10
4.55162e-10
2.28858e-10
1.17222e-10
6.12185e-11
2.93755e-11
1.2723e-11
5.15308e-12
1.85205e-12
5.75307e-13
1.52381e-13
4.02553e-14
2.55873e-14
4.34518e-14
8.37727e-14
1.68726e-13
2.62041e-13
5.43625e-13
7.98499e-10
1.12908e-10
2.38635e-10
7.8477e-10
1.15765e-09
1.22788e-09
7.46109e-10
2.79036e-10
1.30336e-10
6.94992e-11
3.46512e-11
1.53298e-11
6.47769e-12
2.46443e-12
8.22701e-13
2.29841e-13
5.25607e-14
1.33715e-14
1.33394e-14
2.62172e-14
5.06535e-14
1.35983e-13
2.05734e-13
8.95819e-10
1.47743e-10
3.71696e-10
1.11782e-09
1.45941e-09
1.47664e-09
1.08501e-09
4.37963e-10
1.34161e-10
7.08007e-11
3.69873e-11
1.66356e-11
7.28681e-12
2.91857e-12
1.04694e-12
3.21734e-13
7.88379e-14
1.60211e-14
5.5674e-15
8.74358e-15
2.29507e-14
4.49811e-14
1.06129e-13
9.45094e-10
1.85269e-10
5.47668e-10
1.25036e-09
1.51961e-09
1.49073e-09
1.19921e-09
5.03371e-10
1.51639e-10
6.44578e-11
3.55686e-11
1.61383e-11
7.28061e-12
3.04426e-12
1.16912e-12
3.94039e-13
1.09564e-13
2.30045e-14
4.156e-15
3.18697e-15
7.07013e-15
2.81082e-14
5.1332e-14
1.09031e-09
2.39447e-10
6.51576e-10
1.27041e-09
1.51734e-09
1.49459e-09
1.228e-09
4.85418e-10
1.5755e-10
6.16243e-11
3.12751e-11
1.41464e-11
6.49785e-12
2.80038e-12
1.13209e-12
4.17719e-13
1.31425e-13
3.25971e-14
6.04438e-15
1.60003e-15
3.27006e-15
7.88395e-15
3.04951e-14
1.15827e-09
2.66522e-10
6.05587e-10
1.23556e-09
1.37909e-09
1.38641e-09
1.07838e-09
4.48828e-10
1.57895e-10
5.59782e-11
2.52989e-11
1.12783e-11
5.21229e-12
2.27752e-12
9.48515e-13
3.76151e-13
1.3396e-13
3.72373e-14
7.89084e-15
1.19071e-15
1.05157e-15
5.88108e-15
1.26581e-14
1.41913e-09
3.1529e-10
4.77241e-10
9.4042e-10
9.28661e-10
9.64983e-10
8.88669e-10
4.23253e-10
1.3683e-10
4.70449e-11
1.87283e-11
8.20447e-12
3.76912e-12
1.63714e-12
6.81073e-13
2.84233e-13
1.12906e-13
3.67106e-14
8.6622e-15
1.47431e-15
4.63082e-16
1.02886e-15
6.22779e-15
1.53483e-09
3.75085e-10
3.66871e-10
6.51948e-10
7.24279e-10
8.22397e-10
6.86077e-10
3.90439e-10
1.198e-10
3.57175e-11
1.27673e-11
5.38781e-12
2.45422e-12
1.03853e-12
4.17889e-13
1.75748e-13
7.61325e-14
2.90757e-14
8.30799e-15
1.57282e-15
3.17934e-16
6.42107e-16
1.88862e-15
1.87895e-09
5.83192e-10
3.64737e-10
5.48109e-10
6.14511e-10
7.67017e-10
5.94044e-10
3.11822e-10
9.46291e-11
2.37813e-11
7.6452e-12
3.14682e-12
1.42887e-12
5.84275e-13
2.20449e-13
8.83283e-14
3.95842e-14
1.72726e-14
6.11532e-15
1.43311e-15
1.80365e-16
9.43631e-17
7.01665e-16
2.05269e-09
8.37025e-10
4.83827e-10
5.76531e-10
6.18557e-10
6.5577e-10
4.7809e-10
2.30613e-10
6.74053e-11
1.3209e-11
3.87361e-12
1.59888e-12
7.33286e-13
2.91761e-13
1.01141e-13
3.60579e-14
1.52818e-14
7.17967e-15
3.10828e-15
9.67361e-16
1.52998e-16
4.7597e-17
1.22672e-16
2.19892e-09
1.10195e-09
7.7057e-10
6.66211e-10
6.62339e-10
5.65508e-10
3.44043e-10
1.46308e-10
3.98679e-11
5.83243e-12
1.5468e-12
6.7544e-13
3.20234e-13
1.26896e-13
4.07595e-14
1.22129e-14
4.3164e-15
1.93946e-15
1.01048e-15
4.37395e-16
1.08899e-16
1.42924e-17
2.70047e-17
2.20246e-09
1.46928e-09
9.39077e-10
7.5949e-10
6.59527e-10
4.40865e-10
2.15752e-10
7.63974e-11
1.74193e-11
2.10791e-12
4.72513e-13
2.21942e-13
1.13265e-13
4.54166e-14
1.38639e-14
3.48382e-15
9.1663e-16
3.34878e-16
1.93873e-16
1.29952e-16
4.56836e-17
6.25891e-18
4.79998e-18
2.12509e-09
1.50154e-09
9.99085e-10
8.39093e-10
5.45591e-10
2.69276e-10
1.00234e-10
2.63116e-11
4.27938e-12
3.99152e-13
9.18859e-14
4.78993e-14
2.71806e-14
1.14152e-14
3.37737e-15
7.28841e-16
1.32541e-16
3.24605e-17
2.25556e-17
2.43842e-17
1.47328e-17
3.07211e-18
1.0784e-18
2.13848e-09
1.59024e-09
1.07703e-09
5.71147e-10
2.28334e-10
7.4516e-11
1.99567e-11
3.49547e-12
3.53428e-13
2.22665e-14
8.58879e-15
5.15904e-15
3.36931e-15
1.50272e-15
4.45978e-16
8.25651e-17
1.03612e-17
1.5323e-18
1.56627e-18
3.11104e-18
3.88554e-18
1.44626e-18
3.32913e-19
0.000225719
0.000225813
0.000225582
0.000235445
0.00136687
0.000355393
0.000226847
0.00140131
0.00357986
0.00245269
0.000788124
0.00167076
0.000346093
0.000176396
0.000118881
0.000354402
9.91695e-05
9.37297e-05
0.000141427
0.000452181
0.000241394
0.000223316
0.00013707
7.85417e-06
0.000298278
0.000310725
0.000287118
2.64196e-05
3.03364e-07
0.000174899
0.000145383
1.18046e-05
3.5196e-06
6.06654e-07
6.15376e-07
6.82363e-07
1.59236e-05
1.03125e-05
7.45492e-06
3.58953e-06
1.90811e-05
2.00899e-05
1.90498e-05
1.60011e-05
2.78366e-12
2.70966e-08
3.17221e-08
3.13996e-08
2.91335e-07
1.09332e-07
6.79224e-08
6.99315e-08
3.37239e-07
1.30434e-08
1.24048e-09
1.23966e-09
1.37335e-09
2.96688e-09
6.70322e-08
2.17325e-07
9.70922e-10
1.51131e-09
4.31276e-09
6.72209e-08
8.82166e-10
8.84814e-10
1.76713e-09
6.38553e-09
1.02907e-09
2.33312e-09
4.26552e-09
4.54894e-09
1.00123e-09
4.95655e-09
1.40193e-08
1.53522e-08
2.13287e-08
2.13823e-08
1.86285e-08
1.56364e-08
3.82243e-09
5.3294e-09
5.80091e-09
4.36316e-09
6.46363e-10
8.03924e-10
9.323e-10
1.06672e-09
2.21834e-10
2.39799e-10
2.79211e-10
3.09178e-10
8.0806e-11
9.27902e-11
9.95558e-11
1.15929e-10
2.86071e-11
3.25254e-11
4.11569e-11
4.58543e-11
1.18129e-11
1.45613e-11
1.62944e-11
2.01536e-11
4.57961e-12
5.57047e-12
7.90741e-12
9.05297e-12
1.99054e-12
2.60015e-12
3.00246e-12
4.28254e-12
7.9637e-13
9.99116e-13
1.49145e-12
1.73566e-12
3.58736e-13
5.24235e-13
6.19629e-13
9.18927e-13
1.82793e-13
2.47891e-13
3.77093e-13
4.56412e-13
1.10246e-13
1.69945e-13
2.20095e-13
3.59254e-13
5.617e-14
8.50073e-14
1.63613e-13
2.05413e-13
3.95341e-14
5.67179e-14
8.73882e-14
1.61345e-13
1.2786e-14
2.09748e-14
4.93251e-14
7.42987e-14
6.37154e-15
1.05246e-14
1.80384e-14
3.82966e-14
1.78943e-15
3.36934e-15
7.72045e-15
1.21423e-14
4.88517e-16
8.44083e-16
1.56897e-15
3.80839e-15
8.20263e-17
1.592e-16
3.42256e-16
6.64333e-16
1.4972e-17
2.84584e-17
5.67778e-17
1.45232e-16
2.40963e-18
4.79749e-18
1.0546e-17
2.01725e-17
4.10639e-19
7.76259e-19
1.47015e-18
2.5298e-18
0.00128188
0.000945094
0.000252805
0.00023112
0.00027236
0.00400748
0.00311913
0.00194025
0.00618755
0.0218345
0.0187232
0.0086157
0.0131597
0.0211783
0.0171443
0.00272918
0.00207106
0.0033328
0.00138301
0.00253951
0.00250755
0.000509506
5.32834e-06
5.32944e-06
0.00232137
0.00180084
0.00180027
0.0157853
0.0220231
0.0220258
0.0220256
0.0220233
0.0213591
0.00779261
0.00443125
0.0062099
0.00952349
0.00613267
0.00253461
0.00209971
0.000190007
5.41069e-06
0.00548589
0.0110443
0.0109967
0.00424172
0.00751702
0.018093
0.0207272
0.0172422
0.0205313
0.0152706
0.0115059
0.0110166
0.0108205
0.0108195
0.0108185
0.00247566
0.00175013
0.000123271
0.00204917
0.0104429
0.011044
0.0110433
0.00369992
0.000116064
0.00562832
0.00573168
0.00345058
0.00381279
0.00539303
0.00735937
0.00902603
0.00938455
0.00911428
0.0101322
0.000299298
0.00232326
0.000812986
0.000701963
0.000797046
0.00836497
0.0110038
0.00476571
0.000108705
0.000353286
0.0023719
0.00155397
0.00156462
0.000896573
0.000636711
0.00103801
0.00233536
0.00292246
0.00395653
1.91371e-06
0.00214646
0.00184734
0.000701126
0.00071791
0.00122694
0.00266995
0.00181784
0.000381837
0.000149528
7.21378e-05
0.000310417
0.00128664
0.00105184
0.000410392
0.000410079
0.00040717
0.000578071
0.00229891
1.9005e-06
0.000442664
0.00247408
0.00222345
0.000732761
0.000178362
6.72576e-05
5.73922e-05
6.83195e-05
4.42757e-05
4.14092e-05
4.59557e-05
9.52037e-05
0.000202296
0.000247925
0.000567526
0.000406854
0.00373631
0.00230022
2.09938e-06
2.13382e-06
0.00167262
0.00309523
0.00312081
0.00108516
8.36483e-05
5.79212e-05
4.61142e-05
4.13152e-05
4.13085e-05
9.51131e-05
7.72706e-05
7.98418e-05
7.66417e-05
0.0010148
0.00350604
0.00675399
0.00355058
4.97207e-06
7.49164e-06
4.60811e-06
0.00100343
0.00344452
0.00385365
0.0028478
0.000306031
4.66387e-05
0.0001907
0.00195125
0.00407896
0.00400952
0.00304564
0.00307311
0.00531197
0.00675544
0.00675541
0.00607179
5.04439e-06
7.4427e-06
5.0926e-06
1.89229e-06
6.04098e-07
0.000972059
0.00452033
0.00466344
0.00354383
0.00313023
0.00428672
0.00432858
0.0043286
0.00432862
0.00381204
0.00532928
0.00675541
0.00675543
0.00675541
5.25693e-07
1.99383e-06
4.98206e-06
3.66026e-06
6.14821e-07
6.58665e-07
6.57336e-07
0.000806833
0.00280848
0.0030005
0.00283154
0.00269184
0.00210935
0.00107788
0.000771473
0.000805351
0.00216021
0.00454268
0.00549294
3.16206e-08
3.13974e-08
2.75775e-07
1.51138e-06
8.29053e-07
8.78238e-07
6.83709e-07
4.76768e-08
0.000372541
0.000438235
0.000108484
2.76439e-05
5.40021e-06
2.8818e-06
3.28091e-06
1.91658e-06
1.93009e-06
9.1937e-05
0.000278291
7.98472e-08
1.26371e-07
6.1403e-07
8.85151e-07
1.98112e-06
2.29477e-06
1.58776e-06
4.763e-08
4.76754e-08
4.26445e-08
-2.47805e-08
2.81791e-06
1.19522e-05
1.21954e-05
8.16355e-06
1.55706e-06
1.84989e-06
1.03233e-05
5.74193e-05
7.90149e-07
3.60309e-06
1.45526e-06
3.74352e-07
3.35735e-07
8.30104e-07
3.01197e-07
5.42333e-08
4.7284e-08
1.01692e-06
7.64208e-06
1.01103e-05
1.03336e-05
9.07767e-06
2.46763e-06
3.64641e-07
6.1849e-07
1.91137e-06
7.33553e-06
3.14542e-06
6.25289e-06
4.90682e-06
6.18617e-08
5.36838e-08
2.36811e-07
3.88166e-07
5.64324e-07
3.306e-06
9.92937e-06
1.00141e-05
1.01279e-05
5.62106e-06
3.49037e-07
2.6388e-07
3.56271e-07
1.01417e-06
1.54885e-06
4.37689e-06
2.06986e-06
6.24923e-06
6.23192e-06
1.95029e-06
4.95152e-08
3.60856e-08
7.24432e-08
5.67927e-07
3.89849e-06
9.9022e-06
9.96185e-06
3.86319e-06
1.24805e-10
1.48112e-10
4.56167e-09
1.15072e-07
9.54193e-07
1.91537e-06
5.17565e-06
3.55054e-08
2.15427e-06
5.65721e-06
5.36134e-06
2.53331e-06
1.17516e-08
4.32712e-08
2.47051e-07
9.26998e-07
2.03012e-06
1.67873e-06
3.03345e-08
2.74134e-10
2.91723e-09
2.9541e-09
6.71018e-08
8.00886e-07
5.68164e-06
5.70024e-06
4.09864e-09
4.07735e-09
3.81574e-07
2.39531e-06
3.00272e-06
1.23321e-06
9.86935e-09
9.86855e-09
1.27404e-07
1.83194e-07
3.30843e-08
2.8728e-08
2.70884e-08
2.92829e-09
6.50503e-09
2.44611e-08
1.99071e-07
5.90653e-06
5.38256e-06
1.49952e-08
4.05616e-09
2.36053e-09
1.03651e-07
7.70897e-07
1.15675e-06
5.66563e-07
1.95679e-07
4.67194e-07
4.77139e-07
1.2468e-06
1.85229e-06
1.12024e-06
6.60385e-07
1.00947e-07
2.35371e-08
1.80325e-07
5.90551e-06
1.72354e-06
1.0382e-08
6.33081e-09
2.3542e-09
8.79584e-10
3.51483e-08
5.23355e-07
4.53233e-07
1.85525e-07
4.37707e-07
1.84577e-06
2.28587e-06
2.28923e-06
2.26347e-06
1.13548e-06
8.33298e-07
2.3908e-08
2.30699e-08
4.61043e-06
8.14921e-07
3.18266e-09
3.47935e-09
2.54484e-09
8.80041e-10
1.99253e-09
5.92116e-08
2.02568e-07
1.03991e-07
1.09447e-07
5.21504e-07
1.8144e-06
2.2911e-06
2.2911e-06
2.13775e-06
6.88658e-07
3.59077e-09
1.04466e-06
1.85914e-06
2.39742e-07
1.16256e-09
1.58813e-09
1.56999e-09
8.12833e-10
3.27147e-09
2.28942e-09
2.30045e-09
3.2931e-09
2.7376e-09
2.78078e-09
1.30685e-07
1.17241e-06
1.81732e-06
1.61679e-06
4.56756e-07
3.37503e-09
4.19539e-06
1.98694e-06
2.21423e-07
3.60208e-10
5.07678e-10
6.85568e-10
8.03034e-10
2.01686e-09
2.27841e-09
4.20527e-09
6.79782e-09
1.25323e-08
1.08153e-08
1.2624e-08
9.45655e-09
6.00495e-08
1.63687e-07
1.73365e-07
7.38193e-09
4.20552e-06
3.31448e-06
2.2075e-07
1.34164e-10
1.98672e-10
3.2149e-10
5.50716e-10
9.73624e-10
1.94023e-09
5.28874e-09
1.00918e-08
1.52276e-08
1.23716e-08
2.52753e-09
1.39092e-09
1.08591e-09
8.61701e-10
7.71942e-10
8.61806e-10
3.9843e-06
2.53929e-06
1.48627e-07
5.45267e-11
8.19895e-11
1.34888e-10
2.36265e-10
4.17024e-10
6.79437e-10
1.79336e-09
4.50262e-09
6.50702e-09
4.59211e-09
1.50742e-09
1.6193e-09
2.03671e-09
3.83179e-09
2.27926e-09
8.6976e-09
6.77136e-07
3.72605e-07
9.40885e-08
2.39847e-11
3.65402e-11
5.82146e-11
9.54639e-11
1.56719e-10
2.34066e-10
2.86925e-10
4.114e-10
5.54157e-10
9.56149e-10
1.36333e-09
2.25088e-09
4.2336e-09
8.37332e-09
3.14078e-09
1.08844e-07
3.88171e-08
3.85981e-08
2.25417e-08
1.13508e-11
1.80649e-11
2.96e-11
4.90717e-11
8.07524e-11
1.29066e-10
1.91568e-10
2.83559e-10
4.46484e-10
7.89528e-10
1.29896e-09
2.65901e-09
4.28497e-09
8.89089e-09
4.22608e-09
1.43074e-07
4.5437e-08
8.03786e-09
9.28048e-09
5.15501e-12
8.62532e-12
1.47205e-11
2.56137e-11
4.42729e-11
7.57694e-11
1.26827e-10
2.1032e-10
3.58406e-10
6.42316e-10
1.16379e-09
2.2437e-09
3.27194e-09
7.15489e-09
4.23148e-09
1.35935e-07
4.31768e-08
8.07025e-09
7.88401e-09
2.33626e-12
4.01355e-12
7.02097e-12
1.25715e-11
2.24887e-11
4.05751e-11
7.31933e-11
1.31704e-10
2.41579e-10
4.63885e-10
9.07246e-10
1.71132e-09
2.24234e-09
4.20757e-09
6.78959e-09
5.08817e-08
2.54058e-08
7.7658e-09
8.85538e-09
1.13945e-12
2.03499e-12
3.5662e-12
6.29325e-12
1.13317e-11
2.12219e-11
4.00353e-11
7.66902e-11
1.49419e-10
3.01254e-10
6.2182e-10
1.20971e-09
1.77218e-09
2.4421e-09
9.91806e-09
1.66362e-08
6.62339e-09
7.0109e-09
7.34425e-09
7.23125e-13
1.23124e-12
2.17952e-12
3.74845e-12
6.51485e-12
1.16578e-11
2.22567e-11
4.4162e-11
9.0374e-11
1.88532e-10
3.95136e-10
7.97881e-10
1.26409e-09
2.02861e-09
9.38881e-09
6.30187e-09
6.2997e-09
6.30081e-09
9.18851e-09
4.7565e-13
9.18478e-13
1.61683e-12
2.74683e-12
4.71974e-12
7.68411e-12
1.26505e-11
2.17414e-11
4.19713e-11
9.11878e-11
1.93097e-10
3.58378e-10
7.41388e-10
1.3858e-09
7.64397e-09
1.13934e-08
6.29028e-09
6.2936e-09
1.09576e-08
3.77225e-13
6.74396e-13
1.26101e-12
2.23667e-12
4.09116e-12
6.82522e-12
1.10537e-11
1.75163e-11
2.81362e-11
4.7205e-11
8.62167e-11
1.55165e-10
3.01808e-10
9.69733e-10
6.33726e-09
5.45928e-08
5.46594e-08
6.29638e-09
5.29901e-08
2.21699e-13
4.6792e-13
9.37481e-13
1.80606e-12
3.3935e-12
6.23315e-12
1.06202e-11
1.73675e-11
2.74456e-11
4.28685e-11
6.9372e-11
1.13815e-10
1.57483e-10
1.82453e-10
3.48597e-09
7.41709e-08
1.59842e-07
6.68141e-08
1.20569e-07
1.31213e-13
2.78687e-13
6.14105e-13
1.30943e-12
2.67618e-12
5.25628e-12
9.78049e-12
1.72737e-11
2.88537e-11
4.55797e-11
7.14936e-11
1.13111e-10
1.59483e-10
4.94943e-10
6.51216e-09
5.38531e-08
1.71525e-07
1.63005e-07
1.70125e-07
5.69591e-14
1.40976e-13
3.40485e-13
8.01754e-13
1.83012e-12
3.99773e-12
8.24015e-12
1.60565e-11
2.93541e-11
4.96213e-11
7.93597e-11
1.25246e-10
1.86945e-10
2.84034e-10
3.71499e-09
3.21649e-08
1.17302e-07
1.72182e-07
1.70772e-07
2.12294e-14
5.76613e-14
1.55459e-13
4.14553e-13
1.07466e-12
2.64699e-12
6.15098e-12
1.3345e-11
2.69066e-11
5.00716e-11
8.96218e-11
1.47068e-10
2.33151e-10
3.70938e-10
1.2445e-09
9.71055e-09
4.6231e-08
1.58581e-07
3.78673e-08
6.28832e-15
1.87718e-14
5.70045e-14
1.74367e-13
5.21986e-13
1.47847e-12
3.91398e-12
9.56078e-12
2.14873e-11
4.44179e-11
8.6039e-11
1.52971e-10
2.66269e-10
4.5357e-10
7.71901e-10
2.33943e-09
9.44287e-09
1.97752e-08
1.09671e-09
1.52176e-15
4.65824e-15
1.59096e-14
5.66777e-14
1.99651e-13
6.60399e-13
2.03153e-12
5.69767e-12
1.43841e-11
3.25065e-11
6.9087e-11
1.38161e-10
2.56992e-10
4.53125e-10
7.75671e-10
1.08277e-09
1.07091e-09
1.06898e-09
1.09721e-09
2.62608e-16
8.94732e-16
3.43539e-15
1.42257e-14
5.9355e-14
2.35563e-13
8.58125e-13
2.80923e-12
8.195e-12
2.13271e-11
4.95604e-11
1.09291e-10
2.1476e-10
4.1898e-10
7.24457e-10
1.08898e-09
1.17633e-09
1.21265e-09
1.1506e-09
3.72718e-17
1.22143e-16
4.90729e-16
2.30496e-15
1.14765e-14
5.5756e-14
2.49733e-13
9.99206e-13
3.50266e-12
1.0746e-11
2.89667e-11
7.12666e-11
1.60714e-10
3.37175e-10
6.42912e-10
1.04303e-09
1.30756e-09
1.30812e-09
1.08521e-09
4.22454e-18
1.1604e-17
4.24519e-17
2.08641e-16
1.21938e-15
7.46074e-15
4.32295e-14
2.21697e-13
9.77548e-13
3.70986e-12
1.20193e-11
3.43038e-11
8.5648e-11
1.99796e-10
4.3271e-10
7.96307e-10
1.12177e-09
1.17407e-09
7.56103e-10
)
;

boundaryField
{
    leftWall
    {
        type            zeroGradient;
    }
    rightWall
    {
        type            zeroGradient;
    }
    lowerWall
    {
        type            zeroGradient;
    }
    atmosphere
    {
        type            inletOutlet;
        inletValue      uniform 0;
        value           nonuniform List<scalar> 
46
(
2.13848e-09
1.59024e-09
1.07703e-09
0
0
0
0
0
0
0
0
0
0
0
0
0
0
0
0
0
0
0
0
0
0
0
0
0
0
0
0
0
0
4.32295e-14
2.21697e-13
9.77548e-13
3.70986e-12
1.20193e-11
3.43038e-11
8.5648e-11
1.99796e-10
4.3271e-10
7.96307e-10
1.12177e-09
1.17407e-09
7.56103e-10
)
;
    }
    defaultFaces
    {
        type            empty;
    }
}


// ************************************************************************* //
