/*--------------------------------*- C++ -*----------------------------------*\
| =========                 |                                                 |
| \\      /  F ield         | OpenFOAM: The Open Source CFD Toolbox           |
|  \\    /   O peration     | Version:  2312                                  |
|   \\  /    A nd           | Website:  www.openfoam.com                      |
|    \\/     M anipulation  |                                                 |
\*---------------------------------------------------------------------------*/
FoamFile
{
    version     2.0;
    format      ascii;
    arch        "LSB;label=32;scalar=64";
    class       volScalarField;
    location    "4.05";
    object      alpha.air;
}
// * * * * * * * * * * * * * * * * * * * * * * * * * * * * * * * * * * * * * //

dimensions      [0 0 0 0 0 0 0];

internalField   nonuniform List<scalar> 
2268
(
8.32946e-10
8.0785e-10
7.89582e-10
6.87733e-10
4.33365e-10
2.2195e-10
8.7844e-11
6.24831e-11
4.94513e-11
4.83142e-11
4.85372e-11
5.91383e-11
7.78105e-11
1.10659e-10
1.53244e-10
2.10544e-10
2.49228e-10
2.36845e-10
1.91553e-10
1.91135e-10
3.02061e-08
3.47272e-07
5.52241e-07
1.04938e-09
1.81035e-09
2.16616e-09
2.12125e-09
1.11468e-09
1.48165e-10
9.16661e-11
1.61303e-10
2.97377e-10
2.67634e-10
2.07967e-10
2.02712e-10
3.08871e-10
4.1263e-10
5.84036e-10
1.10927e-09
1.71021e-09
2.00011e-09
1.63649e-09
1.00854e-09
1.87174e-07
9.47863e-07
9.50384e-07
1.06662e-09
1.87411e-09
1.91188e-09
1.96426e-09
5.85613e-10
9.68083e-11
9.15172e-11
2.16432e-09
3.55154e-09
7.93021e-10
1.01762e-09
2.12825e-09
2.6424e-10
2.63402e-10
3.03017e-09
2.14572e-09
1.00257e-08
1.36534e-08
1.11751e-08
7.84178e-08
2.00472e-07
2.99904e-07
3.35983e-07
6.69079e-10
9.19303e-10
1.20098e-09
4.05981e-09
5.33864e-08
1.95162e-07
1.62535e-07
9.0001e-09
7.94469e-10
7.93274e-10
7.94469e-10
2.41329e-08
1.37581e-08
3.72888e-08
1.49905e-08
2.12752e-09
2.68558e-09
2.92796e-09
3.64863e-09
6.40967e-09
5.644e-09
1.46609e-06
0.00072159
5.45624e-10
5.38471e-10
5.5209e-10
5.34544e-10
5.5393e-10
9.71941e-08
1.01497e-07
4.20006e-08
6.21325e-07
7.80196e-07
9.6298e-07
2.53721e-08
3.03927e-07
4.80909e-07
1.51573e-08
3.89344e-05
0.000528858
0.00115843
0.00140404
0.00081197
0.000116551
0.0026961
0.00582251
0.000658418
0.000915396
0.000983996
0.000646751
0.000117018
9.90038e-08
4.57577e-06
1.78846e-05
8.48097e-05
0.000140278
0.000141061
6.4081e-05
2.24353e-05
2.46445e-05
0.000115024
0.000326655
0.00328094
0.00964041
0.0124223
0.011747
0.00667944
0.0059876
0.00596086
0.00122185
0.00132674
0.00132676
0.00132674
0.00128449
0.000339816
7.6531e-07
2.27656e-06
0.000116166
0.000236834
0.000236629
0.00023579
8.58277e-05
6.26471e-05
0.000511526
0.00117992
0.00207104
0.00674151
0.0119535
0.0140993
0.0116997
0.00486114
0.00483964
0.000388842
0.000803753
0.00132675
0.00132677
0.00132676
0.000866005
0.000236753
5.09737e-05
2.76387e-05
3.6429e-05
4.47844e-05
7.97195e-05
0.000117455
5.06772e-05
0.000247552
0.000358444
5.11641e-05
7.69137e-05
0.00253558
0.0104193
0.0116689
0.0059913
0.0032726
0.000229302
0.00116881
0.002646
0.00587358
0.00917782
0.00917782
0.00917519
0.00516804
0.00350477
0.00351214
0.00349877
0.00339418
0.00328913
0.00256748
0.00256748
0.00256759
0.00629612
0.00607324
0.00607322
0.000234826
0.000335286
0.000733058
0.00108078
0.00123614
0.00142302
0.00228119
0.00606998
0.00749141
0.00592898
0.00372231
0.00332678
0.00322371
0.00256749
0.00256769
0.00355712
0.00732638
0.00865214
0.00624846
0.0010883
0.00479821
0.00500089
0.00505878
0.00501093
0.00348796
0.00461515
0.0153747
0.0188032
0.0187573
0.00682597
0.00427884
0.00299375
0.0027491
0.00256706
0.0027806
0.00828586
0.0134884
0.0129042
0.00107323
0.00372626
0.0037769
0.00372977
0.00496932
0.0034763
0.00347031
0.0113927
0.0188036
0.0148685
0.0164021
0.0258316
0.0249213
0.0235145
0.0160067
0.017999
0.0218434
0.0196698
0.01565
0.00301563
0.0058008
0.0136937
0.0141821
0.00611345
0.00565941
0.00581205
0.0044926
0.00606397
0.00488518
0.00485713
0.013273
0.0249664
0.0174539
0.0162253
0.030532
0.030403
0.0289791
0.0167073
0.00369375
0.00224222
0.0101097
0.0338529
0.0352813
0.0172419
0.00377273
0.00378082
0.00378182
0.00510276
0.0115805
0.0116804
0.0184778
0.0154516
0.0154576
0.0154846
0.0155099
0.0218287
0.0156556
0.00306118
0.00223528
0.00224001
0.0216518
0.0476299
0.0300454
0.00812522
0.00382862
0.00633509
0.0123488
0.0465281
0.0314297
0.0173048
0.0221586
0.0363962
0.0247254
0.0330152
0.0366364
0.0160154
0.00223667
0.00224222
0.00225347
0.0161993
0.0477142
0.0297362
0.0074372
0.00998778
0.0144435
0.0480373
0.0545637
0.0325093
0.0173704
0.0747392
0.0932568
0.062705
0.0529749
0.0368884
0.0133151
0.000269605
0.000272909
0.000335371
0.000387049
0.000259559
0.000217586
0.000256085
0.00026097
0.000218473
7.6052e-05
4.55829e-05
4.56754e-05
4.03064e-05
4.00343e-05
3.96698e-05
3.96144e-05
3.93645e-05
0.000210024
0.00389068
0.010921
0.0113633
0.0144993
0.0117918
0.000269542
0.000373011
0.000297697
0.000284722
0.000221631
0.000215215
0.000218262
0.000216501
0.000220864
0.000210239
0.000218169
0.000213132
0.000186042
0.000697203
0.000765329
0.00192125
0.0025292
0.00552216
0.0208194
0.0350312
0.0521929
0.0448364
0.015075
0.00339177
0.000379049
0.000409143
0.0018612
0.000387118
0.000539565
0.00275858
0.00808646
0.0185526
0.0316924
0.0366522
0.0328266
0.0213934
0.0205474
0.0388726
0.0581417
0.0640283
0.072992
0.085741
0.0855883
0.0778008
0.0438385
0.0123147
0.0530029
0.0294678
0.0200275
0.0255512
0.0482719
0.0688028
0.0708334
0.0723489
0.073936
0.073936
0.073936
0.073936
0.0482656
0.0277165
0.0644011
0.0907466
0.0907468
0.089624
0.0595243
0.03375
0.00194768
0.00195992
0.00356266
0.0529773
0.0490219
0.0252539
0.014972
0.0245504
0.0311155
0.0283594
0.0195344
0.0254735
0.0648381
0.0738347
0.0469245
0.00218073
0.000387566
0.006212
0.0692266
0.0819376
0.0209792
0.000193895
0.000244527
0.000217946
0.000205976
0.000226981
0.0174246
0.0119773
0.0020705
0.00197647
0.00197857
0.00216339
0.000901469
0.000287621
0.000291802
0.000308166
0.000262652
0.000263556
0.000262652
0.000263668
0.000267472
0.000288746
0.000368943
0.000255074
0.000191741
8.88926e-05
7.15047e-05
7.03384e-05
9.88403e-05
0.421306
0.444991
0.451492
0.446301
0.41579
0.347938
0.283232
0.225083
0.171901
0.122057
0.0813391
0.0483835
0.0297281
0.0202736
0.0136192
0.0120049
0.00828582
0.00289827
0.000928438
0.00115335
0.00683875
0.0187504
0.024084
0.999638
0.99772
0.997338
0.998782
0.998902
0.99883
0.984191
0.95614
0.916316
0.866545
0.805372
0.740281
0.691358
0.652198
0.614624
0.592453
0.559998
0.504598
0.461235
0.466051
0.53032
0.611365
0.643353
0.999969
0.999959
1
1
0.999994
0.999952
1
1
1
0.999903
0.998486
0.993919
0.992547
0.994272
0.995
0.99688
0.99928
0.999374
0.996234
0.992342
0.98756
0.989183
0.994582
1
1
1
0.999999
0.999997
0.999997
0.999999
1
1
1
1
1
1
1
1
1
0.999999
0.999999
0.999968
0.999953
0.999968
0.999974
0.999975
1
1
0.999999
0.999997
0.999997
0.999997
0.999998
0.999997
0.999999
1
1
1
0.999999
0.999998
0.999992
0.99999
0.99999
0.999991
0.999992
0.999998
0.999999
0.999999
0.999986
1
1
1
0.999998
0.999999
0.999996
0.999978
0.999941
0.999958
0.999996
1
0.999998
0.999993
0.999991
0.999991
0.999991
0.999993
0.999999
1
1
0.999999
0.999997
0.999997
1
1
1
1
1
0.999993
0.999931
0.999931
0.999931
0.999964
0.999965
0.99995
0.999969
0.999999
1
1
0.999998
0.999987
0.999984
0.999996
0.999999
0.999999
0.999997
1
1
1
1
1
0.999993
0.999959
0.999935
0.999934
0.999932
0.999932
0.999932
0.999945
0.999992
0.999993
0.999997
0.99998
0.999967
0.999965
0.999988
0.999999
0.999999
0.999999
1
1
1
1
1
0.999999
1
0.999995
0.999983
0.999968
0.999952
0.99995
0.999962
0.99998
0.999981
0.999979
0.999969
0.999965
0.999965
0.999976
0.999994
0.999999
0.999998
1
1
1
1
1
1
1
1
1
1
0.999998
0.999992
0.99999
0.999984
0.999983
0.99999
0.999996
0.999978
0.999965
0.999965
0.999971
0.999992
0.999998
1
1
1
1
1
1
1
1
1
1
1
1
1
1
1
1
1
0.999999
0.999988
0.999967
0.999966
0.999974
0.999998
1
1
1
1
1
1
1
1
1
1
1
1
1
1
1
1
1
1
1
0.999999
0.999985
0.999989
0.999999
1
1
1
1
1
1
1
1
1
1
1
1
1
1
1
1
1
1
1
1
1
1
0.999999
1
1
1
1
1
1
1
1
1
1
1
1
1
1
1
1
1
1
1
1
1
1
1
1
1
1
1
1
1
1
1
1
1
1
1
1
1
1
1
1
1
1
1
1
1
1
1
1
1
1
1
1
1
1
1
1
1
1
1
1
1
1
1
1
1
1
1
1
1
1
1
1
1
1
1
1
1
1
1
1
1
1
1
1
1
1
1
1
1
1
1
1
1
1
1
1
1
1
1
1
1
1
1
1
1
1
1
1
1
1
1
1
1
1
1
1
1
1
1
1
1
1
1
1
1
1
1
1
1
1
1
1
1
1
1
1
1
1
1
1
1
1
1
1
1
1
1
1
1
1
1
1
1
1
1
1
1
1
1
1
1
1
1
1
1
1
1
1
1
1
1
1
1
1
1
1
1
1
1
1
1
1
1
1
1
1
1
1
1
1
1
1
1
1
1
1
1
1
1
1
1
1
1
1
1
1
1
1
1
1
1
1
1
1
1
1
1
1
1
1
1
1
1
1
1
1
1
1
1
1
1
1
1
0.999999
1
1
1
1
1
1
1
1
1
1
1
1
1
1
1
1
1
1
1
1
1
1
0.999999
0.999999
0.999999
0.999999
1
1
1
1
1
1
1
1
1
1
1
1
1
1
1
1
1
1
0.999999
0.999999
0.999999
0.999999
0.999999
1
1
1
1
1
1
1
1
1
1
1
1
1
1
1
1
1
1
0.999999
0.999999
0.999999
0.999999
0.999999
1
1
1
1
1
1
1
1
1
1
1
1
1
1
1
1
1
1
0.999999
0.999999
0.999999
1
1
1
1
1
1
1
1
1
1
1
1
1
1
1
1
1
1
1
1
0.999999
0.999999
1
1
1
1
1
1
1
1
1
1
1
1
1
1
1
1
1
1
1
1
1
0.999999
0.999999
1
1
1
1
1
1
1
1
1
1
1
1
1
1
1
1
1
1
1
1
1
1
1
1
1
1
1
1
1
1
1
1
1
1
1
1
1
1
1
1
1
1
1
1
1
1
1
1
1
1
1
1
1
1
1
1
1
1
1
1
1
1
1
1
1
1
1
1
1
1
1
1
1
1
1
1
1
1
1
1
1
1
1
1
1
1
1
1
1
1
1
1
1
1
1
1
1
1
1
1
1
1
1
1
1
1
1
1
1
1
1
1
1
1
1
1
1
1
1
1
1
1
1
1
1
1
1
1
1
1
1
1
1
1
1
1
1
1
1
1
1
1
1
1
1
1
1
1
1
1
1
1
1
1
1
1
1
0.00289027
0.00241754
0.00242013
0.00243038
0.00241439
0.00241488
0.00337437
0.00920738
0.00241488
0.00242313
0.0412187
0.0442195
0.00493931
0.0255119
0.0402803
0.0108073
0.000343567
0.000358441
0.000238929
3.30136e-07
0.000115652
0.000130617
0.000151041
0.000267321
0.0235201
0.0249591
0.0259506
0.0256001
0.646473
0.656515
0.666164
0.667629
0.997511
0.997328
0.994415
0.993025
0.999984
0.99999
0.999992
0.999996
0.99998
0.999979
0.99998
0.999983
0.999997
0.999997
0.999997
0.999998
0.999998
0.999999
0.999999
0.999999
0.999999
0.999999
0.999998
0.999999
0.999998
0.999998
0.999999
0.999999
0.999997
0.999997
0.999999
0.999999
0.999999
0.999999
0.999999
1
1
1
1
1
1
1
1
1
1
1
1
1
1
1
1
1
1
1
1
1
1
1
1
1
1
1
1
1
1
1
1
1
1
1
1
1
1
1
1
1
1
1
1
1
1
1
1
1
1
1
1
1
1
1
1
1
1
1
1
1
1
1
1
1
1
1
1
1
1
1
1
1
1
1
1
1
1
1
1
1
1
1
1
1
1
1
1
1
1
1
1
1
1
1
1
1
1
1
1
1
0.00388665
0.00276016
0.00225631
0.0223066
0.0476544
0.0230413
0.0105582
0.0189022
0.0249827
0.0545637
0.0546042
0.049243
0.0729786
0.0932568
0.0932568
0.0714761
0.0551653
0.0153018
0.0104514
0.0281529
0.0125152
0.00394998
0.0400831
0.0476858
0.0379613
0.022441
0.0235587
0.0392123
0.0347095
0.0532451
0.0757396
0.0932157
0.0932568
0.0737294
0.0526639
0.0470313
0.0176031
0.0129707
0.0318315
0.00240302
0.0357231
0.0442563
0.0361158
0.030544
0.0897663
0.187082
0.104952
0.0277149
0.0276401
0.0297415
0.0535574
0.0599517
0.0706698
0.025983
0.0191964
0.0222942
0.0222947
0.000634555
0.00200337
0.0236319
0.029105
0.000907917
0.0229747
0.183598
0.187502
0.187502
0.0621697
0.000813135
0.000827227
0.00145956
0.0134663
0.0460489
0.0458982
0.0189328
0.00610947
0.00848745
1.18123e-09
2.6594e-08
0.000329668
0.000493226
0.000168384
2.62548e-24
0.151304
0.187502
0.187502
0.165499
0.0231298
0.000853619
0.000861054
0.00152883
0.00266442
0.0355546
0.0356723
0.00726308
0.00241127
-5.65575e-12
5.66324e-08
6.68598e-10
2.61466e-05
0.000143344
-8.22262e-07
0.0170845
0.171552
0.187502
0.187152
0.108248
0.0027063
0.00110029
0.00137416
0.00201558
0.00569352
0.0195066
0.0073104
0.00241856
0.0238526
0.0138509
0.00114378
6.83517e-19
-3.03593e-07
1.88653e-05
4.8525e-08
0.0137011
0.0787995
0.136164
0.0820189
0.00239057
0.000229041
0.00030177
0.000697835
0.00166882
0.00205708
0.00133538
0.00139519
0.653097
0.596821
0.459381
0.233185
0.0656671
0.00580793
6.87951e-07
0.000360012
0.000566016
0.00325769
0.00323696
0.000437441
-2.06596e-21
3.24521e-19
-2.75492e-23
0.000155419
4.73685e-07
2.73105e-07
0.000125399
0.996766
0.999284
0.995553
0.964155
0.819386
0.574764
0.247758
0.0294414
0.000114629
0.000102609
0.00010535
0.00010248
0.00166201
0.0195613
0.0377326
0.071106
0.106987
0.113701
0.0376741
0.999878
0.999939
0.999995
0.999996
0.997377
0.98915
0.972684
0.889984
0.563269
0.316568
0.338249
0.475564
0.616182
0.666621
0.6997
0.755155
0.810205
0.819116
0.663925
0.999999
0.999998
0.999995
0.999996
0.999986
0.999985
0.99999
0.996748
0.983378
0.965791
0.970453
0.989964
0.99789
0.998841
0.998507
0.998652
0.997656
0.995361
0.994507
0.999999
1
0.999987
0.999947
0.999912
0.999942
0.999991
0.999995
0.999259
0.998431
0.999497
0.99997
0.999995
0.999997
0.999997
0.999998
0.999989
0.999908
0.999722
1
0.999969
0.99984
0.999852
0.99987
0.999921
0.999998
1
1
1
1
0.999996
0.99985
0.999821
0.999826
0.999879
0.999878
0.999893
0.999927
0.99999
0.999856
0.999834
0.999852
0.999873
0.999946
0.999999
1
1
0.999999
0.999941
0.999763
0.999754
0.999755
0.999916
0.999947
0.99994
0.999923
0.999927
0.999974
0.999875
0.999843
0.999898
0.999938
0.999987
0.999995
0.999999
0.999997
0.999898
0.99975
0.999749
0.999753
0.999895
0.999962
0.999963
0.999963
0.999962
0.999921
0.999986
0.999944
0.999945
0.999992
0.999995
0.99999
0.999989
0.999996
0.999991
0.999816
0.99976
0.999766
0.999893
0.999973
0.999945
0.999937
0.999963
0.999963
0.999921
0.999997
0.999966
0.999958
0.999992
0.999995
0.999994
0.999989
0.999993
0.999993
0.999937
0.999866
0.999922
0.999981
0.999981
0.999959
0.999883
0.999876
0.999909
0.999943
0.999998
0.999991
0.999991
0.999972
0.999962
0.999994
0.999991
0.999979
0.999957
0.999937
0.999937
0.99994
0.999954
0.999977
0.999984
0.999946
0.999875
0.999875
0.999973
1
1
1
0.999987
0.999956
0.999955
0.999976
0.99998
0.999966
0.999963
0.999955
0.999937
0.999918
0.999917
0.999985
0.999985
0.999878
0.999905
0.999993
1
1
1
0.999999
0.999983
0.999955
0.999956
0.999958
0.999969
0.999995
0.999994
0.999986
0.999918
0.999916
0.999952
0.999984
0.999879
0.999949
0.999999
1
1
1
1
1
0.999989
0.999964
0.999958
0.999966
0.999998
0.999998
0.999998
0.999946
0.999916
0.999929
0.999924
0.999879
0.999967
1
1
1
1
1
1
1
0.999997
0.99999
0.999993
0.999999
1
0.999999
0.999974
0.999917
0.999931
0.999898
0.999897
0.999992
1
1
1
1
1
1
1
1
0.999999
0.999999
0.999999
1
1
0.999998
0.999964
0.999954
0.999899
0.999971
0.999997
1
1
1
1
1
1
1
1
0.999999
0.999999
0.999999
1
1
1
0.999999
0.999994
0.999963
0.999995
0.999997
0.999999
1
1
1
1
1
1
1
1
1
1
1
1
1
1
0.999997
1
0.999999
1
1
1
1
1
1
1
1
1
1
1
1
1
1
1
1
1
1
1
1
1
1
1
1
1
1
1
1
1
1
1
1
1
1
1
1
1
1
1
1
1
1
1
1
1
1
1
1
1
1
1
1
1
1
1
1
1
1
1
1
1
1
1
1
1
1
1
1
1
1
1
1
1
1
1
1
1
1
1
1
1
1
1
1
1
1
1
1
1
1
1
1
1
1
1
1
1
1
1
1
1
1
1
1
1
1
1
1
1
1
1
1
1
1
1
0.999998
1
1
1
1
1
1
1
1
1
1
1
1
1
1
1
1
1
1
0.999997
1
1
1
1
1
1
1
1
1
1
1
1
1
1
1
1
1
1
0.999996
1
1
1
1
1
1
1
1
1
1
1
1
1
0.999997
0.999995
1
1
1
0.999996
1
1
1
1
1
1
1
1
1
1
1
1
1
0.999996
0.999993
0.999994
1
1
0.999999
1
1
1
1
1
1
1
1
1
1
1
1
1
0.999998
0.999993
0.999993
0.999996
1
0.999999
1
1
1
1
1
1
1
1
1
1
1
1
1
1
0.999998
0.999993
0.999993
0.999995
0.999996
1
1
1
1
1
1
1
1
1
1
1
1
1
1
1
0.999996
0.999994
0.999996
0.999999
1
1
1
1
1
1
1
1
1
1
1
1
1
1
1
1
0.999999
1
1
1
1
1
1
1
1
1
1
1
1
1
1
1
1
1
1
1
1
1
1
1
1
1
1
1
1
1
1
1
1
1
1
1
1
1
1
1
1
1
1
1
1
1
1
1
1
1
1
1
1
1
1
1
1
1
1
1
)
;

boundaryField
{
    leftWall
    {
        type            alphaContactAngle;
        thetaProperties 
6
(
(galistan air) 90 0 0 0
(oil galistan) 90 0 0 0
(water oil) 90 0 0 0
(water air) 90 0 0 0
(oil air) 90 0 0 0
(water galistan) 90 0 0 0
);
        value           nonuniform List<scalar> 
50
(
8.32946e-10
1.04938e-09
1.06662e-09
6.69079e-10
5.45624e-10
0.000658418
0.00122185
0.000388842
0.000269605
0.000269542
0.00339177
0.0530029
0.0529773
0.0174246
0.421306
0.999638
0.999969
1
1
1
1
1
1
1
1
1
1
1
1
1
1
1
1
1
1
1
1
1
1
1
1
1
1
1
1
1
1
1
1
1
)
;
    }
    rightWall
    {
        type            alphaContactAngle;
        thetaProperties 
6
(
(galistan air) 90 0 0 0
(oil galistan) 90 0 0 0
(water oil) 90 0 0 0
(water air) 90 0 0 0
(oil air) 90 0 0 0
(water galistan) 90 0 0 0
);
        value           nonuniform List<scalar> 
50
(
0.00607322
0.00624846
0.0129042
0.01565
0.0167073
0.0156556
0.0160154
0.0133151
0.0104514
0.0129707
0.0222947
0.00848745
0.00241127
0.00241856
0.00139519
0.000125399
0.0376741
0.663925
0.994507
0.999722
0.999927
0.999927
0.999921
0.999921
0.999943
0.999973
0.999993
0.999999
1
1
1
0.999999
1
1
1
1
1
1
0.999998
0.999997
0.999996
0.999996
0.999999
0.999999
0.999996
0.999999
1
1
1
1
)
;
    }
    lowerWall
    {
        type            alphaContactAngle;
        thetaProperties 
6
(
(galistan air) 90 0 0 0
(oil galistan) 90 0 0 0
(water oil) 90 0 0 0
(water air) 90 0 0 0
(oil air) 90 0 0 0
(water galistan) 90 0 0 0
);
        value           nonuniform List<scalar> 
62
(
8.32946e-10
8.0785e-10
7.89582e-10
6.87733e-10
4.33365e-10
2.2195e-10
8.7844e-11
6.24831e-11
4.94513e-11
4.83142e-11
4.85372e-11
5.91383e-11
7.78105e-11
1.10659e-10
1.53244e-10
2.10544e-10
2.49228e-10
2.36845e-10
1.91553e-10
1.91135e-10
3.02061e-08
3.47272e-07
5.52241e-07
5.52241e-07
9.50384e-07
3.35983e-07
0.00072159
0.00582251
0.00596086
0.00483964
0.0032726
0.00289027
0.00241754
0.00242013
0.00243038
0.000229302
0.000234826
0.0010883
0.00107323
0.00301563
0.00369375
0.00306118
0.00223667
0.000229302
0.00116881
0.002646
0.00587358
0.00917782
0.00917782
0.00917519
0.00516804
0.00350477
0.00351214
0.00349877
0.00339418
0.00328913
0.00256748
0.00256748
0.00256759
0.00629612
0.00607324
0.00607322
)
;
    }
    atmosphere
    {
        type            inletOutlet;
        inletValue      uniform 1;
        value           nonuniform List<scalar> 
46
(
1
1
1
1
1
1
1
1
1
1
1
1
1
1
1
1
1
1
1
1
1
1
1
1
1
1
1
1
1
1
1
1
1
1
1
1
1
1
1
1
1
1
1
1
1
1
)
;
    }
    defaultFaces
    {
        type            empty;
    }
}


// ************************************************************************* //
