/*--------------------------------*- C++ -*----------------------------------*\
| =========                 |                                                 |
| \\      /  F ield         | OpenFOAM: The Open Source CFD Toolbox           |
|  \\    /   O peration     | Version:  2312                                  |
|   \\  /    A nd           | Website:  www.openfoam.com                      |
|    \\/     M anipulation  |                                                 |
\*---------------------------------------------------------------------------*/
FoamFile
{
    version     2.0;
    format      ascii;
    arch        "LSB;label=32;scalar=64";
    class       volScalarField;
    location    "4.05";
    object      p;
}
// * * * * * * * * * * * * * * * * * * * * * * * * * * * * * * * * * * * * * //

dimensions      [1 -1 -2 0 0 0 0];

internalField   nonuniform List<scalar> 
2268
(
5589.29
5593.02
5600.29
5606.89
5608.04
5599.26
5577.58
5542.13
5493.7
5433.56
5364.43
5289.31
5210.94
5131.87
5054.59
4981.33
4913.7
4853.22
4801.04
4758.49
4726.08
4703.92
4692.64
4790.14
4793.7
4802.16
4810.34
4813.03
4805.38
4784.18
4748.64
4699.76
4638.81
4568.85
4493.05
4414.13
4334.59
4256.88
4183.32
4115.42
4054.69
4002.18
3959.51
3927.05
3904.42
3892.85
3986.71
3990.38
4001.24
4012.73
4018.69
4013.48
3993.43
3957.71
3908.12
3845.6
3773.99
3696.87
3616.9
3536.44
3457.83
3383.67
3315.2
3254.02
3200.8
3157.89
3125.44
3102.13
3090.3
3176.54
3181.81
3196.98
3213.9
3225.17
3223.88
3205.65
3169.54
3118.89
3053.87
2979.75
2900.7
2819.2
2737.41
2657.34
2582.27
2512.91
2451.13
2396.63
2353.38
2321.08
2296.86
2284.93
2358.22
2366.96
2388.84
2413.79
2432.65
2436.84
2421.14
2383.98
2332.19
2263.41
2185.87
2104.4
2021.01
1937.48
1855.05
1778.69
1708.81
1648.71
1593.83
1550.66
1519.22
1496.7
1488.58
1529.9
1543.77
1575.23
1611.12
1640.91
1653.04
1640.73
1600.32
1549.95
1478.08
1402.06
1328.13
1257.74
1192.16
1132.06
1081.15
1036.96
1006.67
979.087
957.109
940.906
931.549
933.44
926.471
932.674
948.126
967.437
984.47
991.296
984.1
966.877
932.638
895.287
858.862
826.811
799.5
776.828
760.709
749.778
742.275
739.947
739.865
739.222
737.959
737.98
740.357
712.451
709.226
703.853
696.419
686.768
676.797
669.576
666.984
666.778
669.216
671.575
673.636
675.564
676.618
679.322
681.072
682.581
681.58
681.576
681.517
681.053
681.927
683.687
2247.96
2235.72
2245.95
2292.4
2376.41
2473.48
2572.86
2661.36
2733.72
2781.07
2818.39
2880.56
2962.79
3045.51
3102.73
3119.34
3097.79
3046.99
2995.61
1520.83
1497.9
1505.34
1552.99
1633.93
1728.86
1820.4
1904.11
1975.26
2021.72
2051.84
2111.39
2196.79
2283.42
2341.88
2358.73
2334.17
2277.53
2219.56
1045.38
1042.88
1080.15
1122.84
1168.65
1211.62
1246.98
1284.23
1327.63
1374.57
1409.94
1459.49
1515.56
1596.55
1662.46
1680.98
1655.22
1604.16
1567.2
889.881
907.147
962.776
1007.66
1027.68
1024.57
1012.78
1006.07
1013.52
1034.51
1061.95
1084.94
1099.49
1136.22
1179.46
1194.76
1181.12
1155
1146.27
829.196
837.292
884.292
928.481
955.854
960.539
947.12
937.516
935.125
936.257
944.823
954.178
957.645
956.445
958.687
962.236
964.032
966.72
971.253
771.171
759.922
799.565
834.809
867.942
883.913
879.478
877.616
880.815
882.7
887.682
896.653
902.303
900.266
895.798
892.651
898.852
910.653
919.213
719.79
698.087
726.516
748.727
775.273
797.595
806.913
814.168
821.359
824.502
826.73
833.681
841.407
842.164
842.894
841.789
846.731
854.999
860.206
657.428
650.022
666.324
681.138
693.557
716.954
736.859
750.918
761.147
763.512
764.214
770.205
779.109
783.164
786.618
785.82
793.364
799.298
801.749
615.241
612.596
607.364
599.435
589.735
580.787
575.391
574.398
576.823
578.821
580.61
582.252
583.813
585.207
587.307
588.352
588.881
588.281
587.584
586.949
586.514
585.571
583.943
485.277
483.743
480.591
475.731
469.767
463.976
459.869
458.044
457.314
457.415
457.852
458.451
459.065
459.78
460.553
461.086
461.134
460.688
459.093
456.947
455.49
454.816
454.954
356.701
356.402
355.175
352.757
349.118
345.045
341.664
339.246
337.735
336.961
336.773
336.924
337.243
337.748
338.065
339.387
340.925
342.333
343.318
343.59
344.582
344.958
345.034
233.616
233.127
232.95
232.337
231.313
230.136
229.388
229.034
229.827
231.637
234.26
237.495
240.927
243.856
246.004
247.705
250.834
254.029
257.486
260.503
264.369
266.008
266.994
136.479
135.829
135.82
136.007
137.11
139.533
142.779
146.68
151.258
156.266
161.457
166.779
172.227
177.016
180.864
183.562
186.041
188.461
191.034
193.624
195.777
197.414
198.747
67.1496
66.7918
67.0973
67.6423
69.6341
73.2496
77.9247
83.4933
89.4919
95.472
101.016
105.986
110.534
114.942
118.612
121.864
123.8
125.274
127.024
128.776
129.032
129.197
129.647
17.239
16.7827
16.8733
17.223
18.32
20.4484
23.3405
27.186
31.6016
36.4142
41.1496
45.6052
49.7678
53.615
56.6988
58.8703
60.3306
61.7943
63.5153
64.5137
63.3052
61.2006
59.8098
-1.11091
-1.04949
-0.937424
-0.876646
-0.812447
-0.751256
-0.405227
0.565156
1.91235
3.68089
5.68179
7.73698
9.77264
11.6969
13.2272
14.1477
14.4171
15.0278
16.3729
16.8694
15.4363
13.061
11.3992
-1.37637
-1.39214
-1.39093
-1.3793
-1.37296
-1.38491
-1.40512
-1.39773
-1.38335
-1.34869
-1.28076
-1.14233
-0.9807
-0.874108
-0.704233
-0.608467
-0.895086
-1.13707
-1.09422
-0.904624
-0.664477
-0.717499
-0.955639
-1.51461
-1.52236
-1.52406
-1.52102
-1.52132
-1.53067
-1.54177
-1.55325
-1.56189
-1.58253
-1.60598
-1.62123
-1.619
-1.61239
-1.61037
-1.60151
-1.58434
-1.57793
-1.58132
-1.57425
-1.56284
-1.53471
-1.49291
-1.65322
-1.65641
-1.65744
-1.65759
-1.65923
-1.66383
-1.66897
-1.67393
-1.68048
-1.69306
-1.70656
-1.72058
-1.72868
-1.73177
-1.73299
-1.72917
-1.71748
-1.71135
-1.72551
-1.72773
-1.71294
-1.6914
-1.6656
-1.78798
-1.78953
-1.79094
-1.79234
-1.79445
-1.79764
-1.80135
-1.80706
-1.8149
-1.82406
-1.83245
-1.84029
-1.84745
-1.85218
-1.85357
-1.85094
-1.84402
-1.83784
-1.83946
-1.84334
-1.8408
-1.83133
-1.8193
-1.92208
-1.92305
-1.92443
-1.9262
-1.92856
-1.93163
-1.93536
-1.94071
-1.94666
-1.95238
-1.95768
-1.96341
-1.96976
-1.97454
-1.9761
-1.9748
-1.97079
-1.96739
-1.96905
-1.97346
-1.97426
-1.96937
-1.95995
-2.05534
-2.05611
-2.05741
-2.05927
-2.06178
-2.06511
-2.06961
-2.07434
-2.07908
-2.08302
-2.08696
-2.09136
-2.09608
-2.09939
-2.10065
-2.09992
-2.09761
-2.09641
-2.09868
-2.10289
-2.10536
-2.10439
-2.09998
-2.18788
-2.18856
-2.18975
-2.19157
-2.19396
-2.19716
-2.20143
-2.20597
-2.21032
-2.21436
-2.21806
-2.22174
-2.22517
-2.22723
-2.2282
-2.22802
-2.22732
-2.22743
-2.22962
-2.23227
-2.23381
-2.23372
-2.23198
-2.31975
-2.3204
-2.32142
-2.32318
-2.32531
-2.32806
-2.33151
-2.33544
-2.33947
-2.34348
-2.34737
-2.35114
-2.35418
-2.35614
-2.35718
-2.35754
-2.35798
-2.35897
-2.36056
-2.36168
-2.36186
-2.36143
-2.36034
-2.45107
-2.45167
-2.45264
-2.45415
-2.45609
-2.45843
-2.46134
-2.46467
-2.46808
-2.4715
-2.47498
-2.47858
-2.48158
-2.48378
-2.4852
-2.48618
-2.48739
-2.48931
-2.49116
-2.49213
-2.49195
-2.4915
-2.49187
-2.5819
-2.58244
-2.58333
-2.58467
-2.58639
-2.58848
-2.59099
-2.59379
-2.59673
-2.59972
-2.60274
-2.60575
-2.60844
-2.61068
-2.61248
-2.61407
-2.6158
-2.61797
-2.62018
-2.62197
-2.62287
-2.62305
-2.62378
-2.71229
-2.71278
-2.7136
-2.71481
-2.71635
-2.71822
-2.72041
-2.72284
-2.72541
-2.72805
-2.73071
-2.73334
-2.73579
-2.738
-2.73997
-2.74184
-2.74379
-2.74594
-2.74814
-2.75029
-2.75224
-2.75362
-2.75539
-2.8423
-2.84277
-2.84352
-2.84462
-2.84602
-2.8477
-2.84964
-2.85178
-2.85406
-2.85642
-2.85881
-2.86117
-2.86344
-2.86559
-2.86763
-2.86963
-2.87169
-2.87387
-2.87614
-2.87846
-2.88076
-2.88309
-2.88585
-2.972
-2.97244
-2.97315
-2.97417
-2.97544
-2.97696
-2.97871
-2.98062
-2.98267
-2.9848
-2.98697
-2.98914
-2.99127
-2.99335
-2.99539
-2.99744
-2.99956
-3.00178
-3.00413
-3.0066
-3.0092
-3.01202
-3.01537
-3.10144
-3.10187
-3.10254
-3.10348
-3.10466
-3.10606
-3.10764
-3.10938
-3.11124
-3.11317
-3.11516
-3.11717
-3.11917
-3.12118
-3.1232
-3.12526
-3.12739
-3.12965
-3.13205
-3.13462
-3.13741
-3.1405
-3.14409
-3.23068
-3.23109
-3.23173
-3.23263
-3.23373
-3.23502
-3.23647
-3.23805
-3.23975
-3.24152
-3.24335
-3.24521
-3.24711
-3.24903
-3.251
-3.25304
-3.25517
-3.25744
-3.25986
-3.26248
-3.26534
-3.26853
-3.27214
-3.35976
-3.36016
-3.36078
-3.36163
-3.36267
-3.36386
-3.3652
-3.36665
-3.3682
-3.36982
-3.37151
-3.37324
-3.37503
-3.37687
-3.37877
-3.38076
-3.38287
-3.38511
-3.38753
-3.39014
-3.39301
-3.39617
-3.3997
-3.48874
-3.48913
-3.48972
-3.49054
-3.49151
-3.49262
-3.49385
-3.49517
-3.49658
-3.49807
-3.49962
-3.50123
-3.50291
-3.50465
-3.50648
-3.50841
-3.51046
-3.51266
-3.51503
-3.5176
-3.52041
-3.5235
-3.52689
-3.61762
-3.61802
-3.61859
-3.61937
-3.62028
-3.62131
-3.62242
-3.62362
-3.6249
-3.62625
-3.62768
-3.62917
-3.63073
-3.63238
-3.63412
-3.63597
-3.63795
-3.64007
-3.64237
-3.64486
-3.64758
-3.65054
-3.65377
-3.74642
-3.74684
-3.7474
-3.74814
-3.749
-3.74993
-3.75094
-3.75201
-3.75316
-3.75438
-3.75567
-3.75704
-3.75849
-3.76003
-3.76167
-3.76343
-3.76532
-3.76735
-3.76955
-3.77194
-3.77453
-3.77735
-3.78039
-3.87517
-3.87561
-3.87618
-3.87688
-3.87766
-3.8785
-3.87939
-3.88034
-3.88135
-3.88244
-3.8836
-3.88485
-3.88618
-3.88761
-3.88914
-3.8908
-3.89258
-3.8945
-3.89659
-3.89885
-3.9013
-3.90395
-3.90678
-4.00393
-4.00437
-4.00493
-4.00559
-4.0063
-4.00703
-4.00779
-4.00861
-4.00948
-4.01043
-4.01146
-4.01258
-4.0138
-4.01511
-4.01653
-4.01807
-4.01973
-4.02154
-4.0235
-4.02561
-4.0279
-4.03037
-4.033
-4.1327
-4.13314
-4.13367
-4.13429
-4.13492
-4.13552
-4.13614
-4.13681
-4.13754
-4.13835
-4.13925
-4.14025
-4.14134
-4.14253
-4.14383
-4.14525
-4.14679
-4.14846
-4.15028
-4.15224
-4.15437
-4.15664
-4.15906
-4.26149
-4.26191
-4.26243
-4.263
-4.26355
-4.26402
-4.26447
-4.26497
-4.26553
-4.26619
-4.26695
-4.26783
-4.2688
-4.26988
-4.27105
-4.27234
-4.27375
-4.27529
-4.27696
-4.27876
-4.28071
-4.28279
-4.285
-4.39022
-4.39064
-4.39115
-4.39171
-4.39217
-4.3925
-4.39276
-4.39305
-4.39344
-4.39394
-4.39457
-4.39532
-4.39618
-4.39713
-4.39819
-4.39936
-4.40063
-4.40202
-4.40353
-4.40517
-4.40694
-4.40884
-4.41083
-4.51884
-4.51924
-4.51975
-4.52029
-4.52068
-4.52087
-4.52093
-4.52101
-4.52123
-4.52159
-4.52209
-4.52272
-4.52347
-4.52431
-4.52525
-4.52629
-4.52742
-4.52867
-4.53003
-4.5315
-4.53309
-4.53479
-4.53658
-4.64723
-4.64763
-4.64813
-4.64865
-4.64897
-4.64901
-4.64888
-4.64881
-4.64888
-4.64912
-4.64951
-4.65003
-4.65067
-4.6514
-4.65223
-4.65314
-4.65414
-4.65524
-4.65645
-4.65775
-4.65916
-4.66067
-4.66225
-4.77532
-4.77571
-4.77619
-4.77668
-4.77691
-4.77684
-4.77659
-4.77641
-4.77638
-4.77652
-4.77682
-4.77725
-4.77779
-4.77842
-4.77913
-4.77992
-4.78079
-4.78175
-4.7828
-4.78394
-4.78517
-4.78649
-4.78788
-4.90308
-4.9034
-4.90384
-4.90432
-4.90448
-4.90437
-4.90405
-4.90382
-4.90373
-4.9038
-4.90403
-4.90439
-4.90484
-4.90537
-4.90597
-4.90664
-4.90738
-4.9082
-4.90909
-4.91007
-4.91113
-4.91226
-4.91345
-5.03053
-5.03077
-5.03117
-5.03154
-5.03167
-5.03157
-5.03129
-5.03106
-5.03095
-5.031
-5.03118
-5.03146
-5.03183
-5.03226
-5.03275
-5.03331
-5.03392
-5.03459
-5.03533
-5.03615
-5.03703
-5.03799
-5.03899
-5.15774
-5.1579
-5.15819
-5.15846
-5.15857
-5.15851
-5.15832
-5.15816
-5.15808
-5.15813
-5.15828
-5.1585
-5.15878
-5.15912
-5.1595
-5.15993
-5.16041
-5.16094
-5.16153
-5.16219
-5.16291
-5.16368
-5.1645
-5.28481
-5.2849
-5.28506
-5.28521
-5.2853
-5.28531
-5.28524
-5.28518
-5.28518
-5.28524
-5.28536
-5.28553
-5.28573
-5.28596
-5.28623
-5.28654
-5.28688
-5.28727
-5.2877
-5.2882
-5.28875
-5.28935
-5.28998
-5.41184
-5.41186
-5.41188
-5.41191
-5.41199
-5.41208
-5.41215
-5.4122
-5.41227
-5.41235
-5.41245
-5.41256
-5.41268
-5.41281
-5.41296
-5.41313
-5.41334
-5.41357
-5.41386
-5.41418
-5.41456
-5.41499
-5.41545
-5.53889
-5.53886
-5.53875
-5.53863
-5.53875
-5.53893
-5.53911
-5.53926
-5.53938
-5.53948
-5.53955
-5.5396
-5.53963
-5.53966
-5.53969
-5.53974
-5.5398
-5.53988
-5.54
-5.54016
-5.54037
-5.54062
-5.54089
-5.66602
-5.66598
-5.6658
-5.66556
-5.66571
-5.66598
-5.66625
-5.66648
-5.66663
-5.66672
-5.66675
-5.66673
-5.66668
-5.6666
-5.6665
-5.66641
-5.66631
-5.66623
-5.66617
-5.66614
-5.66616
-5.66623
-5.66633
577.851
575.482
574.775
574.033
453.131
451.575
451.001
450.971
344.866
344.964
346.308
348.783
267.943
269.283
272.097
273.45
199.997
200.902
201.898
202.984
130.601
131.253
131.94
132.714
59.5081
59.4677
59.6805
60.2369
10.8182
10.5768
10.5465
10.5807
-1.02202
-1.03422
-1.00661
-0.968476
-1.47413
-1.47266
-1.47863
-1.47502
-1.64977
-1.64631
-1.64633
-1.64209
-1.80954
-1.80321
-1.7959
-1.78675
-1.95056
-1.9438
-1.93658
-1.92862
-2.09293
-2.08696
-2.08061
-2.07548
-2.2299
-2.2283
-2.22608
-2.22351
-2.36055
-2.36117
-2.36238
-2.36423
-2.49386
-2.4958
-2.49844
-2.50172
-2.62633
-2.62862
-2.63156
-2.635
-2.75784
-2.76001
-2.76274
-2.7659
-2.88846
-2.89052
-2.893
-2.89585
-3.01824
-3.02032
-3.02263
-3.02513
-3.14708
-3.14915
-3.15135
-3.15369
-3.2751
-3.27713
-3.27927
-3.28152
-3.40256
-3.40449
-3.40653
-3.40867
-3.5296
-3.53143
-3.53334
-3.53534
-3.65632
-3.65803
-3.65981
-3.66167
-3.78277
-3.78436
-3.78601
-3.78773
-3.909
-3.91046
-3.91198
-3.91357
-4.03504
-4.03639
-4.03778
-4.03923
-4.16093
-4.16216
-4.16343
-4.16475
-4.28669
-4.28781
-4.28896
-4.29016
-4.41236
-4.41337
-4.4144
-4.41548
-4.53795
-4.53885
-4.53977
-4.54073
-4.66347
-4.66426
-4.66508
-4.66593
-4.78894
-4.78963
-4.79035
-4.79108
-4.91437
-4.91496
-4.91558
-4.91621
-5.03976
-5.04026
-5.04078
-5.04131
-5.16513
-5.16554
-5.16596
-5.16639
-5.29047
-5.29079
-5.29112
-5.29145
-5.4158
-5.41603
-5.41626
-5.4165
-5.54111
-5.54125
-5.54139
-5.54153
-5.66641
-5.66646
-5.66651
-5.66656
571.77
564.994
570.107
584.442
602.559
623.186
641.453
656.96
667.641
668.131
669.188
675.133
682.575
691.002
695.253
700.443
708.04
710.83
715.789
448.094
441.572
444.557
464.876
492.615
509.522
523.55
535.905
543.886
548.544
554.925
560.657
567.617
572.67
574.818
583.912
589.091
589.489
596.277
350.945
350.822
355.684
375.192
394.469
405.624
417.251
430.54
437.32
446.9
456.013
461.718
466.86
467.971
467.031
471.195
474.115
475.095
481.503
276.645
283.174
291.094
305.479
313.494
322.413
332.023
344.364
355.775
364.842
372.622
379.104
382.845
384.233
382.535
381.552
383.917
388.596
393.566
206.002
215.174
227.771
237.429
242.468
251.303
262.02
272.25
286.73
297.19
304.084
311.056
314.936
315.844
315.313
315.471
317.151
320.499
324.048
134.893
142.542
157.265
168.977
177.937
186.803
198.66
209.515
221.621
234.547
242.31
248.132
251.287
252.504
253.102
254.608
256.632
259.574
262.084
61.88
67.8992
81.7784
98.096
113.048
126.101
139.738
153.175
165.08
176.393
184.962
188.648
190.14
190.539
191.149
193.03
196.042
199.367
201.861
10.4296
11.9406
18.4239
31.4079
48.1423
64.8112
82.0741
96.6244
110.882
122.473
129.083
130.785
130.177
128.896
128.45
129.557
131.872
134.834
139.763
-1.01702
-1.03979
-0.977359
0.807819
7.46049
17.0537
30.5898
42.6743
56.5395
68.3653
73.079
71.469
67.1743
64.0136
62.2334
62.2016
63.7919
67.2708
74.2851
-1.44488
-1.41974
-1.45814
-1.47601
-1.43267
-0.397091
3.35809
7.17369
16.3885
25.2917
26.7251
22.6054
17.8699
14.9165
13.2299
13.3446
15.5549
19.4757
23.6058
-1.6237
-1.60924
-1.63799
-1.70345
-1.75333
-1.78157
-1.76363
-1.33148
0.722232
1.68784
1.47949
0.723384
-0.0330462
-0.808814
-0.989831
-0.813743
0.251492
2.35613
3.51957
-1.77075
-1.7661
-1.78959
-1.8393
-1.89682
-1.96997
-2.02603
-2.10117
-2.05467
-2.02831
-2.01206
-1.92236
-1.90948
-1.9137
-1.88994
-1.83447
-1.81982
-1.76782
-1.62807
-1.91589
-1.91269
-1.93847
-1.98569
-2.04152
-2.10717
-2.16173
-2.25968
-2.35424
-2.38801
-2.28328
-2.1471
-2.07674
-2.04975
-2.03013
-1.99235
-1.96917
-1.98929
-2.00888
-2.06846
-2.07126
-2.09605
-2.13471
-2.18079
-2.23373
-2.28849
-2.36384
-2.42875
-2.4227
-2.36734
-2.29469
-2.24315
-2.21199
-2.18603
-2.15458
-2.13773
-2.14677
-2.16037
-2.22094
-2.22855
-2.24741
-2.27549
-2.30921
-2.3482
-2.3911
-2.43885
-2.47971
-2.48318
-2.4548
-2.42003
-2.38762
-2.3596
-2.33229
-2.31117
-2.30448
-2.29833
-2.2977
-2.36863
-2.37901
-2.39209
-2.40941
-2.43318
-2.4626
-2.49514
-2.52817
-2.55599
-2.56747
-2.55879
-2.53787
-2.51253
-2.48738
-2.46643
-2.4495
-2.43951
-2.43367
-2.43416
-2.50819
-2.52023
-2.53099
-2.54164
-2.55721
-2.57858
-2.60295
-2.62805
-2.65164
-2.6686
-2.66898
-2.65359
-2.63152
-2.61285
-2.60083
-2.5908
-2.58201
-2.57257
-2.57514
-2.64148
-2.65362
-2.66431
-2.67307
-2.6835
-2.69774
-2.71646
-2.7372
-2.75777
-2.77434
-2.77823
-2.767
-2.74919
-2.73488
-2.72909
-2.72681
-2.72211
-2.71601
-2.71442
-2.77168
-2.78252
-2.793
-2.80218
-2.8107
-2.82077
-2.83538
-2.85289
-2.87121
-2.88611
-2.89137
-2.88503
-2.87102
-2.85869
-2.85348
-2.85457
-2.85273
-2.85238
-2.84867
-2.90109
-2.91025
-2.91971
-2.92893
-2.93804
-2.94653
-2.95834
-2.97256
-2.98798
-3.00075
-3.0067
-3.00468
-2.99548
-2.98519
-2.97924
-2.97889
-2.97821
-2.98065
-2.97707
-3.02982
-3.03785
-3.04634
-3.05507
-3.06404
-3.07319
-3.08331
-3.0946
-3.10641
-3.11662
-3.1226
-3.12305
-3.11905
-3.11176
-3.10673
-3.10423
-3.10262
-3.10537
-3.10322
-3.15809
-3.16526
-3.17302
-3.18106
-3.1895
-3.19827
-3.20752
-3.21696
-3.22606
-3.23388
-3.23955
-3.24182
-3.24131
-3.23809
-3.23422
-3.23104
-3.22934
-3.2294
-3.22851
-3.28561
-3.29224
-3.29932
-3.30677
-3.3145
-3.32243
-3.33053
-3.33853
-3.34599
-3.35245
-3.3575
-3.36069
-3.36218
-3.36234
-3.36038
-3.35781
-3.35658
-3.35465
-3.35352
-3.41249
-3.41854
-3.42502
-3.43186
-3.43889
-3.44608
-3.45319
-3.4601
-3.46653
-3.47218
-3.47679
-3.48006
-3.48214
-3.48362
-3.48339
-3.48253
-3.48168
-3.47983
-3.47767
-3.53889
-3.5444
-3.55028
-3.55645
-3.56283
-3.56926
-3.5756
-3.58175
-3.58746
-3.59256
-3.59685
-3.60012
-3.60237
-3.60383
-3.60403
-3.60382
-3.60393
-3.60253
-3.60034
-3.66495
-3.66996
-3.67527
-3.68082
-3.68652
-3.69228
-3.69794
-3.70342
-3.70858
-3.71325
-3.71724
-3.7204
-3.72264
-3.72404
-3.72429
-3.72388
-3.7239
-3.72313
-3.72184
-3.79074
-3.79529
-3.80008
-3.80505
-3.81015
-3.81527
-3.82034
-3.82524
-3.82987
-3.8341
-3.83778
-3.84074
-3.84284
-3.84412
-3.84439
-3.84405
-3.84398
-3.84355
-3.84272
-3.91632
-3.92045
-3.92476
-3.92922
-3.93376
-3.93832
-3.94282
-3.94719
-3.95133
-3.95514
-3.95848
-3.96116
-3.96308
-3.96423
-3.96457
-3.96445
-3.96437
-3.96412
-3.96354
-4.04174
-4.04547
-4.04934
-4.05333
-4.05737
-4.06142
-4.06542
-4.06929
-4.07296
-4.07635
-4.07932
-4.08174
-4.08349
-4.08457
-4.08492
-4.08504
-4.08503
-4.08492
-4.08449
-4.16703
-4.17039
-4.17386
-4.17741
-4.181
-4.18458
-4.18811
-4.19153
-4.19477
-4.19775
-4.20038
-4.20253
-4.20412
-4.20513
-4.20556
-4.20584
-4.20592
-4.20594
-4.20561
-4.29222
-4.29522
-4.29832
-4.30147
-4.30465
-4.30781
-4.31091
-4.31391
-4.31675
-4.31935
-4.32166
-4.32357
-4.32501
-4.32596
-4.32644
-4.32686
-4.32703
-4.32716
-4.32689
-4.41733
-4.42
-4.42275
-4.42553
-4.42833
-4.4311
-4.43381
-4.43643
-4.4389
-4.44116
-4.44317
-4.44486
-4.44616
-4.44705
-4.44756
-4.44806
-4.44833
-4.44854
-4.44834
-4.54238
-4.54474
-4.54716
-4.5496
-4.55204
-4.55445
-4.55681
-4.55908
-4.56121
-4.56317
-4.56491
-4.56638
-4.56754
-4.56835
-4.56888
-4.56946
-4.56978
-4.57003
-4.56994
-4.66738
-4.66945
-4.67156
-4.67368
-4.67579
-4.67787
-4.6799
-4.68185
-4.68368
-4.68536
-4.68685
-4.68814
-4.68918
-4.68994
-4.69047
-4.69106
-4.69143
-4.69166
-4.6917
-4.79235
-4.79414
-4.79595
-4.79777
-4.79958
-4.80135
-4.80308
-4.80474
-4.8063
-4.80773
-4.809
-4.81012
-4.81107
-4.81184
-4.81239
-4.8129
-4.81326
-4.81346
-4.8136
-4.91729
-4.91881
-4.92035
-4.92188
-4.9234
-4.9249
-4.92634
-4.92773
-4.92904
-4.93025
-4.93133
-4.9323
-4.93315
-4.93392
-4.93451
-4.93495
-4.93524
-4.93539
-4.93557
-5.04221
-5.04348
-5.04475
-5.04602
-5.04727
-5.04849
-5.04968
-5.05082
-5.0519
-5.0529
-5.05381
-5.05463
-5.05537
-5.05607
-5.05669
-5.05711
-5.05735
-5.05749
-5.05765
-5.16712
-5.16814
-5.16916
-5.17017
-5.17116
-5.17214
-5.17309
-5.174
-5.17486
-5.17566
-5.1764
-5.17707
-5.1777
-5.17829
-5.17885
-5.1793
-5.17957
-5.17968
-5.17975
-5.29201
-5.29279
-5.29357
-5.29433
-5.29509
-5.29583
-5.29656
-5.29724
-5.29789
-5.2985
-5.29908
-5.29961
-5.30012
-5.3006
-5.30105
-5.30145
-5.30172
-5.30178
-5.30181
-5.4169
-5.41745
-5.41799
-5.41852
-5.41904
-5.41957
-5.42009
-5.42055
-5.42099
-5.42142
-5.42183
-5.42222
-5.4226
-5.42297
-5.42332
-5.42363
-5.42385
-5.42391
-5.42394
-5.54177
-5.5421
-5.54241
-5.54272
-5.54302
-5.54334
-5.54372
-5.54392
-5.54416
-5.5444
-5.54465
-5.54489
-5.54515
-5.54541
-5.54568
-5.54593
-5.5461
-5.54617
-5.54619
-5.66664
-5.66675
-5.66685
-5.66694
-5.66702
-5.66708
-5.66709
-5.66723
-5.66733
-5.66741
-5.66751
-5.66762
-5.66776
-5.66793
-5.66814
-5.66836
-5.66846
-5.66852
-5.66856
)
;

boundaryField
{
    leftWall
    {
        type            calculated;
        value           nonuniform List<scalar> 
50
(
5589.29
4790.14
3986.71
3176.54
2358.22
1529.9
926.471
712.451
615.241
485.277
356.701
233.616
136.479
67.1496
17.239
-1.11091
-1.37637
-1.51461
-1.65322
-1.78798
-1.92208
-2.05534
-2.18788
-2.31975
-2.45107
-2.5819
-2.71229
-2.8423
-2.972
-3.10144
-3.23068
-3.35976
-3.48874
-3.61762
-3.74642
-3.87517
-4.00393
-4.1327
-4.26149
-4.39022
-4.51884
-4.64723
-4.77532
-4.90308
-5.03053
-5.15774
-5.28481
-5.41184
-5.53889
-5.66602
)
;
    }
    rightWall
    {
        type            calculated;
        value           nonuniform List<scalar> 
50
(
2995.61
2219.56
1567.2
1146.27
971.253
919.213
860.206
801.749
715.789
596.277
481.503
393.566
324.048
262.084
201.861
139.763
74.2851
23.6058
3.51957
-1.62807
-2.00888
-2.16037
-2.2977
-2.43416
-2.57514
-2.71442
-2.84867
-2.97707
-3.10322
-3.22851
-3.35352
-3.47767
-3.60034
-3.72184
-3.84272
-3.96354
-4.08449
-4.20561
-4.32689
-4.44834
-4.56994
-4.6917
-4.8136
-4.93557
-5.05765
-5.17975
-5.30181
-5.42394
-5.54619
-5.66856
)
;
    }
    lowerWall
    {
        type            calculated;
        value           nonuniform List<scalar> 
62
(
5987.44
5991.17
5998.44
6005.04
6006.19
5997.41
5975.73
5940.28
5891.85
5831.71
5762.58
5687.46
5609.08
5530.02
5452.74
5379.48
5311.85
5251.37
5199.19
5156.64
5124.21
5102.05
5090.77
4692.64
3892.85
3090.3
2284.93
1488.58
933.44
740.357
683.687
637.991
635.502
634.89
634.169
2247.96
1520.83
1045.38
889.881
829.196
771.171
719.79
657.428
2630.11
2617.84
2627.92
2674.26
2758.17
2855.25
2953.18
3042.2
3115.16
3162.5
3199.81
3261.81
3344.08
3428
3486.84
3503.57
3481.34
3430.39
3379.01
)
;
    }
    atmosphere
    {
        type            calculated;
        value           nonuniform List<scalar> 
46
(
-5.72953
-5.72958
-5.72946
-5.72906
-5.72936
-5.72974
-5.73005
-5.73028
-5.73043
-5.7305
-5.73049
-5.73042
-5.7303
-5.73015
-5.72999
-5.72981
-5.72963
-5.72946
-5.7293
-5.72916
-5.72907
-5.72904
-5.72904
-5.72904
-5.72904
-5.72905
-5.72905
-5.72906
-5.72907
-5.72907
-5.72907
-5.72905
-5.72904
-5.72904
-5.72904
-5.72904
-5.72904
-5.72904
-5.72905
-5.72907
-5.72913
-5.72928
-5.7296
-5.7296
-5.72956
-5.72949
)
;
    }
    defaultFaces
    {
        type            empty;
    }
}


// ************************************************************************* //
