/*--------------------------------*- C++ -*----------------------------------*\
| =========                 |                                                 |
| \\      /  F ield         | OpenFOAM: The Open Source CFD Toolbox           |
|  \\    /   O peration     | Version:  2312                                  |
|   \\  /    A nd           | Website:  www.openfoam.com                      |
|    \\/     M anipulation  |                                                 |
\*---------------------------------------------------------------------------*/
FoamFile
{
    version     2.0;
    format      ascii;
    arch        "LSB;label=32;scalar=64";
    class       volScalarField;
    location    "4.05";
    object      p_rgh;
}
// * * * * * * * * * * * * * * * * * * * * * * * * * * * * * * * * * * * * * //

dimensions      [1 -1 -2 0 0 0 0];

internalField   nonuniform List<scalar> 
2268
(
5987.44
5991.17
5998.44
6005.04
6006.19
5997.41
5975.73
5940.28
5891.85
5831.71
5762.58
5687.46
5609.08
5530.02
5452.74
5379.48
5311.85
5251.37
5199.19
5156.64
5124.21
5102.05
5090.77
5984.59
5988.15
5996.61
6004.79
6007.48
5999.83
5978.63
5943.09
5894.21
5833.26
5763.29
5687.5
5608.58
5529.04
5451.33
5377.77
5309.87
5249.14
5196.63
5153.95
5121.49
5098.84
5087.27
5977.46
5981.13
5991.99
6003.47
6009.44
6004.23
5984.18
5948.46
5898.87
5836.35
5764.74
5687.62
5607.65
5527.19
5448.58
5374.41
5305.94
5244.77
5191.55
5148.64
5116.18
5092.88
5081.05
5963.59
5968.86
5984.02
6000.95
6012.22
6010.93
5992.7
5956.59
5905.94
5840.92
5766.8
5687.75
5606.25
5524.46
5444.39
5369.32
5299.96
5238.17
5183.68
5140.43
5108.13
5083.9
5069.97
5941.57
5950.31
5972.19
5997.14
6015.99
6020.19
6004.49
5967.33
5915.53
5846.7
5769.16
5687.74
5604.35
5520.82
5438.39
5361.87
5284.14
5203.54
5131.79
5085.08
5051
5002.21
4959.92
5872.69
5895.65
5935.44
5985.61
6020.04
6032.36
6019.54
5978.93
5926.19
5831.13
5688.21
5497.67
5256.89
4970.97
4628.42
4279.89
3939.87
3614.74
3280.8
3029.26
2857.31
2729.06
2671.25
3220.2
3368.01
3674.74
4044.78
4395.59
4611.05
4616.43
4419.44
4041.86
3477.22
2926.16
2443.62
2029.94
1697.47
1429.9
1252.1
1115.51
1106.11
1102.2
1095.93
1093.98
1106.21
1143.38
1153.28
1150.38
1155.67
1183.89
1237.58
1287.69
1287.24
1226.5
1122.31
1110.59
1112.93
1114.97
1116.3
1113.48
1114.66
1117.13
1119.37
1119.69
1119.66
1116.65
1097.97
1099.18
1115.34
2630.11
2617.84
2627.92
2674.26
2758.17
2855.25
2953.18
3042.2
3115.16
3162.5
3199.81
3261.81
3344.08
3428
3486.84
3503.57
3481.34
3430.39
3379.01
2553.01
2552.35
2553.12
2599.31
2703.54
2813.12
2942.63
3049.87
3120.57
3157.34
3191.38
3262.32
3350.1
3436.71
3495.12
3511.91
3486.93
3428.41
3365.16
1714.37
1550.92
1441.82
1505.5
1704.94
1992.6
2258.93
2494.52
2690.54
2731.69
2683.77
2767.9
2994.37
3150.12
3201.39
3216.1
3164.89
3030.45
2826.05
1067.27
1108.9
1196.31
1231.17
1241.01
1237.33
1238.36
1277.04
1369.36
1535.55
1681.18
1823.58
1917.56
2207.61
2490.39
2535.3
2421.7
2250.87
2193.39
1055.76
1143.09
1233.4
1295.72
1299.25
1245.15
1222.19
1184.2
1156.9
1175.59
1206.79
1188.01
1164.85
1203.51
1303.15
1385.73
1343.11
1219.26
1169.04
1047.42
1118.47
1243.88
1350.15
1379.59
1357.72
1243
1203.26
1195.77
1204.92
1228.19
1224.55
1206.64
1209.35
1204.77
1200.03
1210.8
1223.37
1214.57
1066.2
1072.85
1107.12
1184.5
1375.34
1386.41
1252.13
1215.36
1216.3
1221.08
1229.08
1235.16
1214.44
1201.19
1213.51
1220.42
1227.21
1225.21
1214.99
1105.26
1094.93
1107.27
1115.31
1259.08
1323.74
1211.99
1200.28
1206.47
1226.65
1233.39
1210.32
1209.65
1228.01
1265.84
1257.19
1228.82
1225.54
1185.9
1148.55
1145.91
1140.65
1132.7
1123.03
1114.1
1108.74
1107.96
1110.7
1112.57
1114.43
1116.23
1117.27
1112.32
1114.13
1118.12
1121.48
1119.92
1121.37
1122.51
1119.22
1114.01
1102.01
1143.98
1142.16
1139.06
1134.34
1128.89
1123.17
1119.07
1117.28
1116.46
1116.09
1116.45
1117.04
1117.66
1118.04
1137.1
1127.95
1125.4
1119.12
1117.26
1116.82
1109.1
1099.54
1102.19
1139.41
1140.58
1138.71
1135.23
1133.3
1130.13
1126.86
1118.78
1107.76
1097.24
1092.02
1089.43
1080.85
1064.86
1059.8
1053.04
1033.22
1014.52
975.436
924.716
877.669
861.093
857.998
1071.05
1093.38
1104.79
1113.28
1100.77
1064.77
1027.59
989.565
950.568
903.988
860.542
817.613
777.634
755.275
729.623
727.559
726.851
729.739
750.136
742.406
738.864
727.069
725.949
755.84
742.429
748.004
765.71
768.143
749.101
729.159
684.12
657.667
640.879
643.595
664.231
692.225
694.229
694.96
665.485
671.391
696.543
713.238
712.937
715.115
717.314
718.641
642.581
645.89
649.95
651.625
657.705
662.062
666.291
667.428
671.628
676.794
681.758
686.162
690.713
695.162
698.909
702.002
703.468
704.988
706.816
708.754
709.068
710.714
712.39
391.524
376.468
373.694
380.204
402.223
447.028
491.378
533.241
574.075
610.67
637.843
659.898
677.287
690.916
699.699
701.651
701.676
703.105
705.748
708.203
706.833
697.68
691.999
1.98225
5.37478
8.18473
8.56039
9.62568
10.189
21.0389
44.809
76.1216
115.446
158.519
198.614
240.083
282.733
310.965
327.479
345.229
370.432
399.153
404.44
359.135
299.751
275.536
0.223201
0.380323
0.145163
0.155811
0.213235
0.611762
0.132262
0.137389
0.155119
2.03073
4.72492
10.253
13.9714
16.0815
21.2196
23.4768
14.1986
6.4274
8.06162
13.1678
20.3025
17.6514
9.05752
0.145686
0.138513
0.136367
0.139954
0.14135
0.131948
0.119685
0.107808
0.0993999
0.0848326
0.0594052
0.0436496
0.0432811
0.0491971
0.0504058
0.0592768
0.0769021
0.0910308
0.803366
1.15016
0.824009
0.703156
0.716907
0.132286
0.129164
0.128748
0.130671
0.129968
0.126507
0.119763
0.11871
0.114488
0.101256
0.0864927
0.071719
0.0627406
0.0773353
0.114597
0.121264
0.127523
0.115546
0.0742032
0.061227
0.073468
0.0952891
0.416824
0.122719
0.121238
0.120156
0.120756
0.121775
0.122298
0.139068
0.177383
0.149193
0.0970133
0.0796783
0.089424
0.106147
0.106832
0.105755
0.116623
0.107051
0.0782278
0.0713393
0.0673328
0.0705694
0.0820199
0.0941558
0.113805
0.112928
0.11177
0.111553
0.11252
0.121185
0.181127
0.176305
0.170559
0.124221
0.119629
0.134021
0.105135
0.0631149
0.060045
0.0613349
0.0668041
0.0835522
0.0901135
0.0681579
0.0628361
0.0708363
0.0905521
0.105734
0.10505
0.104065
0.103311
0.101493
0.107946
0.145701
0.167657
0.161473
0.162997
0.165016
0.167279
0.158743
0.0937436
0.0808633
0.0689789
0.0906551
0.132956
0.137459
0.0827695
0.0584265
0.070911
0.076085
0.0983962
0.0977783
0.0968164
0.0951391
0.0928536
0.0898548
0.0858042
0.088674
0.0975424
0.11975
0.146521
0.171775
0.154986
0.132215
0.110785
0.103109
0.130189
0.152225
0.154571
0.122847
0.0630486
0.0540085
0.0576006
0.0917142
0.0910894
0.0901693
0.0884361
0.08638
0.0834375
0.0803324
0.0760361
0.0720071
0.0680743
0.0725026
0.0931619
0.108288
0.108632
0.0956827
0.0800419
0.0848879
0.139824
0.167164
0.154877
0.118802
0.0642301
0.054257
0.0855837
0.0849948
0.0840712
0.0825824
0.0806216
0.0782799
0.0753247
0.072011
0.0686697
0.0653953
0.0618111
0.058022
0.0550395
0.0534197
0.0514137
0.0531815
0.0564681
0.0797573
0.114761
0.155298
0.152436
0.121005
0.0470835
0.0799596
0.0793921
0.0785272
0.0772008
0.0754724
0.0733921
0.0708737
0.0681047
0.0652527
0.0622732
0.0590737
0.0560453
0.0533842
0.0511982
0.0493857
0.0477344
0.0459979
0.0438263
0.0416171
0.0535569
0.103441
0.0915938
0.0657743
0.0747747
0.0742274
0.0734249
0.0722252
0.0706934
0.0688262
0.066631
0.0642141
0.0616529
0.0589927
0.0562974
0.0536563
0.0512041
0.0490164
0.0470611
0.0451581
0.0432042
0.041061
0.0388591
0.0367043
0.0347518
0.048148
0.0409741
0.0699551
0.0694255
0.0686809
0.0675852
0.0661985
0.0645193
0.0625776
0.0604283
0.0581414
0.0557794
0.0533837
0.0510187
0.048745
0.0465958
0.044559
0.0425657
0.0405045
0.0383268
0.036061
0.0337501
0.0314616
0.0291668
0.0264944
0.0654557
0.0649353
0.0642351
0.063223
0.0619487
0.060424
0.0586788
0.0567545
0.0547057
0.0525744
0.0504057
0.0482368
0.046105
0.0440258
0.0419834
0.0399336
0.0378183
0.0355972
0.0332624
0.0308156
0.0282402
0.0254223
0.0221149
0.0612122
0.0606992
0.0600329
0.0590842
0.0579039
0.0565065
0.0549202
0.0531805
0.0513228
0.0493847
0.0473985
0.0453915
0.043383
0.0413776
0.0393612
0.0373032
0.0351644
0.0329091
0.0305109
0.0279454
0.0251695
0.0220873
0.0185104
0.057181
0.0566668
0.0560266
0.0551295
0.0540265
0.0527364
0.0512847
0.0496975
0.0480037
0.0462304
0.0444017
0.0425355
0.0406407
0.0387156
0.0367464
0.0347096
0.0325752
0.0303118
0.0278891
0.0252728
0.0224115
0.019231
0.0156276
0.0532992
0.0527873
0.0521685
0.0513153
0.0502796
0.0490828
0.047748
0.0462964
0.0447482
0.043123
0.0414367
0.0396998
0.037915
0.0360765
0.0341709
0.032178
0.0300733
0.0278292
0.025417
0.0228028
0.0199394
0.0167742
0.0132486
0.0495299
0.0490172
0.0484193
0.0476056
0.0466311
0.0455207
0.044295
0.0429699
0.0415579
0.0400708
0.0385181
0.0369047
0.0352294
0.0334842
0.0316557
0.0297261
0.0276741
0.0254763
0.0231073
0.0205373
0.0177277
0.0146423
0.0112504
0.0458456
0.0453212
0.044747
0.0439722
0.0430583
0.0420337
0.0409148
0.0397132
0.0384331
0.0370792
0.0356556
0.0341635
0.0325991
0.0309536
0.029214
0.027364
0.0253854
0.0232582
0.0209611
0.0184698
0.0157541
0.0127905
0.00956445
0.0422638
0.0416968
0.0411302
0.0403947
0.0395437
0.0386097
0.0375991
0.0365221
0.0353735
0.0341513
0.0328555
0.0314845
0.0300335
0.0284937
0.0268529
0.0250965
0.0232088
0.0211729
0.0189718
0.0165862
0.0139935
0.0111789
0.00814004
0.0387179
0.0381247
0.037552
0.0368562
0.0360746
0.0352424
0.0343471
0.0333932
0.0323783
0.0312891
0.0301214
0.0288728
0.0275381
0.0261093
0.0245756
0.0229244
0.0211419
0.0192144
0.0171284
0.0148693
0.0124205
0.00977446
0.00693744
0.0351953
0.0345594
0.0340014
0.0333704
0.0327168
0.0319245
0.0311478
0.0303247
0.0294473
0.0284943
0.0274565
0.0263318
0.025116
0.0238027
0.022383
0.020846
0.0191802
0.0173746
0.0154186
0.0133014
0.011011
0.00854533
0.00591735
0.0316131
0.0309868
0.0307344
0.0309086
0.0300628
0.0296085
0.0282452
0.027314
0.0265811
0.02577
0.0248649
0.0238655
0.0227702
0.0215753
0.0202743
0.0188585
0.0173182
0.0156444
0.0138292
0.0118647
0.00974265
0.00746508
0.00504947
0.0281155
0.0274502
0.0277433
0.028845
0.029379
0.0301969
0.02823
0.0243714
0.0237839
0.0231224
0.0223526
0.021479
0.0205042
0.0194285
0.0182487
0.0169583
0.0155494
0.0140146
0.0123478
0.0105434
0.00859586
0.00651002
0.00430683
0.0246115
0.0239108
0.0247087
0.0260745
0.0271043
0.0272661
0.0266495
0.0215248
0.0210734
0.0205637
0.0199288
0.0191785
0.0183218
0.0173637
0.0163051
0.015142
0.0138678
0.0124764
0.0109627
0.00932286
0.00755338
0.0056613
0.00366933
0.0212507
0.0205961
0.0216696
0.0227941
0.0238609
0.0240049
0.0214112
0.0187465
0.0184784
0.0181119
0.0176034
0.0169702
0.0162264
0.0153822
0.0144425
0.0134059
0.0122675
0.0110214
0.00966334
0.00819017
0.00659989
0.00490052
0.00311607
0.0180431
0.0174407
0.0185476
0.0196159
0.018722
0.018138
0.016364
0.0161529
0.016031
0.0157798
0.0153831
0.0148565
0.0142184
0.0134831
0.0126585
0.0117463
0.0107426
0.00964185
0.00843979
0.00713357
0.005722
0.00421364
0.00263191
0.0153571
0.0146336
0.0159008
0.0158206
0.0135804
0.0136269
0.0138732
0.0137691
0.0137286
0.0135707
0.0132665
0.0128337
0.0122934
0.0116618
0.0109488
0.0101578
0.00928677
0.00833022
0.00728325
0.00614294
0.00490839
0.00358765
0.00220367
0.0128034
0.0121264
0.0132556
0.012902
0.0110601
0.0113755
0.0115306
0.0115414
0.0115685
0.0114762
0.0112427
0.0108907
0.0104408
0.00990906
0.00930518
0.00863335
0.00789283
0.00707874
0.0061853
0.00520904
0.00414925
0.00301325
0.00182214
0.010923
0.010038
0.0100504
0.00948383
0.00907906
0.00939587
0.00936984
0.00947185
0.00953535
0.00947621
0.00929123
0.00900829
0.00864355
0.00821005
0.00771525
0.0071625
0.0065516
0.00587865
0.00513744
0.00432338
0.00343565
0.00248059
0.00147785
0.00895876
0.00833046
0.00787462
0.00748972
0.00737419
0.00756081
0.00749117
0.00755006
0.00759122
0.00753788
0.00738417
0.00716186
0.00687994
0.00654555
0.00616236
0.00573133
0.00525155
0.00471987
0.00413045
0.0034774
0.00275947
0.00198275
0.00116414
0.00712445
0.00691024
0.00638133
0.00597082
0.00588189
0.00573843
0.0057084
0.0057032
0.00568737
0.0056219
0.0054946
0.00532847
0.00512892
0.00489573
0.00462796
0.00432326
0.00397876
0.00359083
0.00315428
0.00266266
0.00211326
0.00151228
0.000875391
0.00522359
0.00521549
0.0047652
0.00453574
0.00437246
0.00411384
0.00396273
0.0038685
0.00379007
0.00370641
0.00360618
0.00349617
0.00337848
0.00324716
0.00309705
0.0029226
0.00271831
0.00247875
0.00219818
0.00186988
0.00148982
0.00106408
0.000607313
0.00313048
0.00333344
0.00298786
0.00299584
0.00272977
0.0024107
0.00216824
0.00199411
0.00186533
0.00176979
0.00170001
0.00164934
0.00161432
0.00158513
0.00155356
0.00151176
0.00145218
0.00136726
0.00124923
0.0010896
0.000881351
0.000629254
0.000353311
0.000905743
0.000997004
0.00105715
0.00112368
0.00080446
0.000481762
0.000194679
-3.23997e-05
-0.000190538
-0.00028111
-0.000309187
-0.00029038
-0.00023448
-0.000154409
-6.06317e-05
3.75878e-05
0.000131837
0.000213813
0.000274494
0.000301978
0.000281539
0.000212402
0.000115664
1090.38
1086.98
1087.09
1086.53
1094.3
1083.04
1082.18
1089.12
846.255
835.424
816.319
841.859
724.327
714.325
709.759
727.27
718.283
719.103
720.84
726.69
713.955
714.328
713.739
712.5
694.504
693.565
693.055
688.382
269.949
264.85
257.548
254.099
4.39801
4.60946
9.10427
11.2762
0.543842
0.419311
0.349185
0.26599
0.597688
0.625443
0.600238
0.530917
0.103911
0.110839
0.117962
0.126984
0.0953005
0.0964254
0.102843
0.110056
0.0786494
0.0770982
0.0841984
0.0872651
0.0619072
0.0621387
0.0646099
0.0717206
0.0570883
0.0565688
0.0519856
0.050281
0.0441786
0.0431382
0.0399095
0.0358414
0.035577
0.0334839
0.0307868
0.0271995
0.0295215
0.0273229
0.0248481
0.0218316
0.0247273
0.0226468
0.0200057
0.0170678
0.0193267
0.0173553
0.0150994
0.0125753
0.0155299
0.0134892
0.0113067
0.00900988
0.0126706
0.0106483
0.0085136
0.00627209
0.0103979
0.00846515
0.00642641
0.00429342
0.00853843
0.00671535
0.00480438
0.00280129
0.00701125
0.00530481
0.00352301
0.00166206
0.00575414
0.00416786
0.00251876
0.000798389
0.00472438
0.0032571
0.00173664
0.000155258
0.0038775
0.00252911
0.00113588
-0.000312494
0.00318216
0.00194975
0.000679092
-0.000639267
0.00260889
0.00149066
0.000340133
-0.000854137
0.00213797
0.00112992
9.39312e-05
-0.000980014
0.0017463
0.000845762
-7.83931e-05
-0.00103725
0.00141959
0.00062281
-0.000194363
-0.00104085
0.00114338
0.00044747
-0.000265027
-0.00100333
0.00091017
0.000311764
-0.000300485
-0.000933229
0.000709516
0.000206134
-0.000307524
-0.000838001
0.000536611
0.000125987
-0.000292314
-0.000722307
0.000385728
6.61208e-05
-0.000257785
-0.000589986
0.000254258
2.41178e-05
-0.000208406
-0.000444664
0.00013805
-2.31601e-06
-0.000142606
-0.000284269
3.53491e-05
-1.7041e-05
-6.79199e-05
-0.000116688
1108.19
1101.95
1102.54
1072.18
1044.66
1151.79
1186.01
1191.1
1225.8
1240.28
1203.29
1182.67
1192.94
1203.94
1268.87
1206
1217.9
1236.74
1179.5
1067.69
1025.07
985.582
906.558
984.052
1150.27
1179.84
1191.47
1271.04
1133.35
1075.46
1077.37
1071.58
1156.53
1214.01
1234.54
1256.86
1289.43
1258.46
803.303
763.291
737.959
784.603
947.477
1066.5
1136.99
1072.61
1061.55
1026.34
1048.87
1018.16
1047.58
1020.15
1061.99
1178.58
1202.05
1129.03
1117.99
760.468
757.559
736.359
771.072
891.293
897.321
881.343
983.591
942.855
896.354
894.728
874.186
881.93
896.588
903.399
927.797
949.971
950.345
965.363
728.883
764.8
755.697
763.757
770.244
881.145
849.334
899.121
953.62
882.512
846.802
848.759
852.769
844.331
839.712
828.304
847.807
874.272
894.841
716.385
762.26
768.606
759.429
768.472
785.063
808.829
755.084
853.539
863.671
791.854
831.064
849.91
847.399
837.935
837.309
831.298
845.2
877.089
689.446
718.581
776.983
783.567
767.993
772.073
786.15
788.561
761.447
754.663
792.593
834.976
835.343
837.372
838.208
843.988
843.94
904.002
883.951
257.345
301.941
444.257
642.532
773.042
787.603
789.391
802.981
816.734
826.345
833.025
838.673
838.331
837.92
836.631
853.986
901.285
964.344
912.191
5.57353
1.73768
7.46571
59.3322
230.106
435.278
672.567
795.03
826.023
841.037
880.384
920.485
915.184
880.394
865.242
883.828
885.179
883.516
935.877
0.522627
0.49617
0.31645
0.230511
4.58983
39.4785
142.177
217.64
471.695
666.12
669.701
552.366
431.2
388.062
349.311
335.684
321.333
317.83
449.845
0.174796
0.224336
0.267755
0.171083
0.059162
0.0337394
0.0533918
24.3026
90.8504
110.176
96.8572
74.068
52.6999
27.1554
20.7162
21.3916
54.5403
114.033
137.976
0.141542
0.145326
0.14538
0.162057
0.119005
0.0180643
-0.0893991
-0.184766
10.1888
13.3675
3.45616
0.707443
0.140788
0.0712208
0.105844
0.126273
0.149339
2.51905
7.47545
0.122479
0.167866
0.316598
0.245144
0.180915
0.0702032
-0.0820549
-0.222477
-0.317119
-0.350789
-0.248128
-0.031369
0.440922
0.504489
0.404127
0.208776
0.2433
0.428812
1.62408
0.132175
0.395067
0.327872
0.219536
0.127269
0.0100931
-0.116954
-0.201244
-0.266364
-0.231965
0.0806362
0.428735
0.496693
0.492282
0.157405
0.0933498
0.110242
0.151823
0.286155
0.21391
0.44237
0.420043
0.13548
0.0489698
-0.0352871
-0.0825795
-0.133111
-0.0912623
0.223123
0.440157
0.479113
0.372813
0.0810732
0.0211743
0.0431673
0.0621453
0.0841765
0.219157
0.136312
0.351557
0.340087
0.0803693
-0.0134969
-0.0347239
-0.0622438
-0.0913996
-0.0114547
0.381448
0.469574
0.2915
0.0413484
-0.0314487
0.0209112
0.0469188
0.0558407
0.0935589
0.246412
0.0361105
0.169836
0.292883
0.183544
0.0714572
-0.0277022
-0.0402885
-0.0678842
-0.0753236
0.0143766
0.0929441
-0.0167113
-0.0667794
-0.048634
-0.00952081
0.0994392
0.152272
0.28486
0.23415
0.0253455
0.032799
0.0350147
0.114191
0.133476
0.0203631
-0.0313883
-0.0203799
0.0179394
0.0334756
0.0241654
0.0366582
0.0179481
-0.0329789
-0.0444697
0.00880482
0.124407
0.334454
0.175172
0.0165191
0.00462369
-0.00591184
0.00761914
0.0669203
0.0708966
0.0138196
-0.00343309
0.026884
0.0192486
0.0629672
0.129645
0.143303
0.131851
-0.0408107
-0.0453817
0.118139
0.298672
0.0139557
0.0116329
0.00232305
-0.00736708
-0.0156681
0.000768539
0.0511022
0.0368947
0.0138767
-0.000403728
-0.00889465
0.00674672
0.0314483
0.184895
0.158995
0.0828568
-0.0397794
0.119473
0.183297
-0.031881
0.00787269
-8.58462e-05
-0.00863397
-0.0174918
-0.0265371
-0.0162262
0.0178545
0.0120393
-0.0128303
-0.0549221
-0.0105869
0.00849022
0.120359
0.205776
0.137403
0.0808855
0.167181
0.0563896
-0.0556381
0.00464632
-0.00241267
-0.0101239
-0.0182964
-0.0267359
-0.0355486
-0.0408363
-0.0382698
-0.0524981
-0.0690433
-0.0712746
-0.0290642
0.0442827
0.197868
0.131393
0.128862
0.277059
0.0269777
-0.0561205
0.00219554
-0.00439241
-0.0114096
-0.0188651
-0.0265867
-0.0344696
-0.0419011
-0.0485469
-0.0557424
-0.06219
-0.0684048
-0.0724766
-0.0688383
0.0389774
0.0721734
0.126476
0.161193
0.0807119
-0.0552079
0.000473851
-0.00556279
-0.0120201
-0.0188212
-0.0258168
-0.0328531
-0.0392287
-0.0452036
-0.051073
-0.0571444
-0.0630851
-0.066991
-0.0690944
-0.0682499
-0.0573864
-0.00246943
0.116255
0.0504797
-0.0568573
-0.000743964
-0.00624682
-0.0121145
-0.0182695
-0.0246171
-0.0310155
-0.0371968
-0.0428526
-0.0482904
-0.0536368
-0.058468
-0.0618308
-0.0640834
-0.0654617
-0.0604207
-0.0651807
-0.0332916
-0.0463204
-0.0566046
-0.00161107
-0.00661803
-0.0119254
-0.0174682
-0.0231593
-0.0289009
-0.0345701
-0.04004
-0.0451665
-0.0497863
-0.0537119
-0.0568801
-0.0590163
-0.0598882
-0.0604842
-0.0550077
-0.0585012
-0.057471
-0.0563493
-0.00221043
-0.00675898
-0.0115472
-0.0165199
-0.0216079
-0.0267231
-0.0317775
-0.0366657
-0.0412783
-0.0454612
-0.049091
-0.0519914
-0.0539391
-0.0544596
-0.0552699
-0.047918
-0.0529948
-0.0542382
-0.0527341
-0.00260079
-0.00672371
-0.0110363
-0.0154903
-0.0200293
-0.0245872
-0.0290847
-0.0334392
-0.0375609
-0.0413333
-0.0446196
-0.0472305
-0.0489974
-0.049448
-0.0502624
-0.0433094
-0.0482842
-0.049421
-0.0487864
-0.00282611
-0.00655237
-0.0104273
-0.0144089
-0.0184506
-0.0224991
-0.0264902
-0.030356
-0.0340154
-0.037374
-0.0403075
-0.0426561
-0.0443215
-0.0450635
-0.0454869
-0.0432296
-0.0446007
-0.0448675
-0.0444581
-0.00292151
-0.00627625
-0.00974687
-0.0132962
-0.0168847
-0.0204683
-0.0239962
-0.0274097
-0.0306367
-0.0335992
-0.0361952
-0.0382971
-0.0398243
-0.0408027
-0.0407879
-0.0406016
-0.040941
-0.0403384
-0.0404371
-0.00291465
-0.00592073
-0.00901581
-0.0121671
-0.0153408
-0.0185
-0.021603
-0.0245997
-0.0274281
-0.0300224
-0.0323046
-0.0341782
-0.035575
-0.0364885
-0.0364756
-0.0365363
-0.0362713
-0.0363484
-0.0331774
-0.00282912
-0.00550642
-0.00825103
-0.0110338
-0.0138256
-0.0165955
-0.0193086
-0.0219233
-0.024388
-0.0266459
-0.0286386
-0.0303005
-0.0315778
-0.0324233
-0.0325261
-0.0324684
-0.032416
-0.03266
-0.0252339
-0.00268284
-0.00504969
-0.0074658
-0.0099056
-0.0123442
-0.0147557
-0.0171105
-0.0193744
-0.0215065
-0.0234574
-0.0251825
-0.0265939
-0.0275208
-0.028571
-0.0287536
-0.0263511
-0.0259803
-0.0290581
-0.0182244
-0.002491
-0.00456325
-0.00667009
-0.00878929
-0.0109001
-0.0129808
-0.0150073
-0.0169516
-0.0187774
-0.0204466
-0.0219179
-0.0231307
-0.0238485
-0.018721
-0.0139066
-0.0205925
-0.0160611
-0.0218464
-0.0103165
-0.00226442
-0.0040565
-0.00587095
-0.00768921
-0.00949455
-0.0112695
-0.0129942
-0.014645
-0.0161922
-0.0176047
-0.0188547
-0.0198934
-0.0206233
-0.0127871
-0.00506331
-0.0046632
-0.011654
-0.0123696
-0.00893235
-0.00201193
-0.00353618
-0.00507308
-0.00660759
-0.00812695
-0.00961777
-0.0110644
-0.0124476
-0.0137428
-0.0149243
-0.0159687
-0.0168542
-0.0174866
-0.0145757
-0.00165542
-9.45355e-05
-0.0024419
-0.00817629
-0.00740873
-0.00173935
-0.00300681
-0.00427911
-0.00554491
-0.00679536
-0.00802096
-0.00920974
-0.0103465
-0.0114128
-0.0123875
-0.0132457
-0.01398
-0.014572
-0.0149219
-0.00997542
0.00193137
0.00417355
0.00520975
-0.0049168
-0.00145136
-0.00247149
-0.00349054
-0.00450079
-0.00549725
-0.00647419
-0.00742248
-0.00832846
-0.00918054
-0.0099641
-0.0106601
-0.0112561
-0.0117198
-0.0121205
-0.0123242
-0.00377268
0.00294024
-0.00291539
-0.0104631
-0.00115116
-0.00193248
-0.00270828
-0.00347443
-0.00422991
-0.00497319
-0.00569769
-0.00638258
-0.00702766
-0.00763
-0.00818029
-0.00865941
-0.00902516
-0.00927356
-0.00964459
-0.0102001
-0.00891748
-0.0101499
-0.0102301
-0.000841834
-0.00139134
-0.00193264
-0.00246477
-0.00299029
-0.00351384
-0.00403794
-0.0044974
-0.00493809
-0.00535965
-0.00575528
-0.00611099
-0.0064208
-0.00656823
-0.00673212
-0.00726186
-0.00746977
-0.00749551
-0.00753899
-0.000521397
-0.000847388
-0.00116393
-0.00147161
-0.00177582
-0.00209022
-0.00247255
-0.00267236
-0.00290996
-0.00315309
-0.00339048
-0.00361563
-0.0038166
-0.00394204
-0.003966
-0.00420481
-0.00451022
-0.00457606
-0.00449889
-0.000196342
-0.000304387
-0.000403179
-0.000492923
-0.00057375
-0.000640327
-0.000647565
-0.000791479
-0.000884277
-0.000970137
-0.00106304
-0.00116868
-0.00128528
-0.00140144
-0.00145568
-0.00136212
-0.00145808
-0.00156597
-0.00167142
)
;

boundaryField
{
    leftWall
    {
        type            fixedFluxPressure;
        gradient        uniform 0;
        value           nonuniform List<scalar> 
50
(
5987.44
5984.59
5977.46
5963.59
5941.57
5872.69
3220.2
1153.28
1148.55
1143.98
1139.41
1071.05
755.84
642.581
391.524
1.98225
0.223201
0.145686
0.132286
0.122719
0.113805
0.105734
0.0983962
0.0917142
0.0855837
0.0799596
0.0747747
0.0699551
0.0654557
0.0612122
0.057181
0.0532992
0.0495299
0.0458456
0.0422638
0.0387179
0.0351953
0.0316131
0.0281155
0.0246115
0.0212507
0.0180431
0.0153571
0.0128034
0.010923
0.00895876
0.00712445
0.00522359
0.00313048
0.000905743
)
;
    }
    rightWall
    {
        type            fixedFluxPressure;
        gradient        uniform 0;
        value           nonuniform List<scalar> 
50
(
3379.01
3365.16
2826.05
2193.39
1169.04
1214.57
1214.99
1185.9
1179.5
1258.46
1117.99
965.363
894.841
877.089
883.951
912.191
935.877
449.845
137.976
7.47545
1.62408
0.286155
0.219157
0.246412
0.23415
0.175172
0.0139557
-0.031881
-0.0556381
-0.0561205
-0.0552079
-0.0568573
-0.0566046
-0.0563493
-0.0527341
-0.0487864
-0.0444581
-0.0404371
-0.0331774
-0.0252339
-0.0182244
-0.0103165
-0.00893235
-0.00740873
-0.0049168
-0.0104631
-0.0102301
-0.00753899
-0.00449889
-0.00167142
)
;
    }
    lowerWall
    {
        type            fixedFluxPressure;
        gradient        uniform 0;
        value           nonuniform List<scalar> 
62
(
5987.44
5991.17
5998.44
6005.04
6006.19
5997.41
5975.73
5940.28
5891.85
5831.71
5762.58
5687.46
5609.08
5530.02
5452.74
5379.48
5311.85
5251.37
5199.19
5156.64
5124.21
5102.05
5090.77
5090.77
5087.27
5081.05
5069.97
4959.92
2671.25
1143.38
1115.34
1090.38
1086.98
1087.09
1086.53
2630.11
2553.01
1714.37
1067.27
1055.76
1047.42
1066.2
1105.26
2630.11
2617.84
2627.92
2674.26
2758.17
2855.25
2953.18
3042.2
3115.16
3162.5
3199.81
3261.81
3344.08
3428
3486.84
3503.57
3481.34
3430.39
3379.01
)
;
    }
    atmosphere
    {
        type            totalPressure;
        rho             rho;
        psi             none;
        gamma           1;
        p0              uniform 0;
        value           nonuniform List<scalar> 
46
(
0
0
0
-1.86578e-05
-0.000320237
-0.000695655
-0.00101087
-0.00124191
-0.00139049
-0.00145689
-0.00144598
-0.00137552
-0.00125989
-0.00111323
-0.000946859
-0.000770313
-0.000591706
-0.000418281
-0.000257619
-0.000122112
-3.37537e-05
-4.06113e-06
-3.67805e-07
-9.24997e-07
-3.0021e-06
-7.40987e-06
-1.28382e-05
-1.95475e-05
-2.92374e-05
-3.17085e-05
-2.54295e-05
-1.42239e-05
-3.8481e-06
0
0
0
0
0
0
0
0
0
0
0
0
0
)
;
    }
    defaultFaces
    {
        type            empty;
    }
}


// ************************************************************************* //
