/*--------------------------------*- C++ -*----------------------------------*\
| =========                 |                                                 |
| \\      /  F ield         | OpenFOAM: The Open Source CFD Toolbox           |
|  \\    /   O peration     | Version:  2312                                  |
|   \\  /    A nd           | Website:  www.openfoam.com                      |
|    \\/     M anipulation  |                                                 |
\*---------------------------------------------------------------------------*/
FoamFile
{
    version     2.0;
    format      ascii;
    arch        "LSB;label=32;scalar=64";
    class       volVectorField;
    location    "4.05";
    object      U;
}
// * * * * * * * * * * * * * * * * * * * * * * * * * * * * * * * * * * * * * //

dimensions      [0 1 -1 0 0 0 0];

internalField   nonuniform List<vector> 
2268
(
(-0.00528508 0.00178167 0)
(-0.0271782 0.00476929 0)
(-0.0498536 0.00507306 0)
(-0.0705036 0.00466636 0)
(-0.0878682 0.00383584 0)
(-0.100932 0.0027805 0)
(-0.109115 0.00161105 0)
(-0.112343 0.000470876 0)
(-0.111082 -0.000527039 0)
(-0.106189 -0.00129341 0)
(-0.0987532 -0.00180833 0)
(-0.0899243 -0.00206753 0)
(-0.0807078 -0.00210391 0)
(-0.0718165 -0.00199378 0)
(-0.0635739 -0.00183698 0)
(-0.0559969 -0.00170371 0)
(-0.0490378 -0.00157274 0)
(-0.0425095 -0.00151646 0)
(-0.0359954 -0.00157674 0)
(-0.0292541 -0.0016601 0)
(-0.0223966 -0.00166517 0)
(-0.0156427 -0.00177838 0)
(-0.00951872 -0.00377212 0)
(-0.0137439 0.0140774 0)
(-0.0365208 0.0167243 0)
(-0.0596365 0.0156366 0)
(-0.079684 0.0135931 0)
(-0.0962705 0.0107823 0)
(-0.108493 0.00743312 0)
(-0.11583 0.00384384 0)
(-0.118228 0.000439053 0)
(-0.116178 -0.00249467 0)
(-0.11056 -0.00466787 0)
(-0.102482 -0.00601122 0)
(-0.0930927 -0.0065861 0)
(-0.083406 -0.00653209 0)
(-0.0741486 -0.0060967 0)
(-0.0656287 -0.00557751 0)
(-0.057795 -0.00517468 0)
(-0.0505773 -0.00478496 0)
(-0.0437961 -0.00458632 0)
(-0.036962 -0.00469915 0)
(-0.0297234 -0.00487556 0)
(-0.0221892 -0.0048789 0)
(-0.014887 -0.00473794 0)
(-0.00775863 -0.00862172 0)
(-0.0171387 0.0259282 0)
(-0.0420538 0.0273813 0)
(-0.0663345 0.025368 0)
(-0.0869426 0.021815 0)
(-0.103745 0.0171658 0)
(-0.115865 0.0116781 0)
(-0.122783 0.00582121 0)
(-0.124538 0.000312622 0)
(-0.121728 -0.00444526 0)
(-0.1153 -0.00798212 0)
(-0.106459 -0.0102061 0)
(-0.0963899 -0.0112111 0)
(-0.0861309 -0.0111768 0)
(-0.0764439 -0.0104624 0)
(-0.0676185 -0.00955971 0)
(-0.0594593 -0.00887555 0)
(-0.05185 -0.0081701 0)
(-0.0446644 -0.00781885 0)
(-0.037337 -0.0080208 0)
(-0.0294439 -0.00835796 0)
(-0.0210863 -0.00857422 0)
(-0.0133822 -0.00821035 0)
(-0.00505588 -0.0134625 0)
(-0.0183666 0.041738 0)
(-0.0453842 0.041032 0)
(-0.0710795 0.0372745 0)
(-0.0926968 0.0317424 0)
(-0.110223 0.0248244 0)
(-0.122686 0.0167289 0)
(-0.129524 0.00810882 0)
(-0.130931 4.35958e-05 0)
(-0.127585 -0.00696965 0)
(-0.120505 -0.0120672 0)
(-0.111038 -0.0151257 0)
(-0.100383 -0.0163776 0)
(-0.0895866 -0.0160927 0)
(-0.0794375 -0.0148204 0)
(-0.0702054 -0.0133504 0)
(-0.0614401 -0.012446 0)
(-0.052987 -0.0114954 0)
(-0.044842 -0.0111 0)
(-0.0364415 -0.0115186 0)
(-0.027716 -0.0120824 0)
(-0.0186156 -0.0126065 0)
(-0.0109258 -0.0118112 0)
(-0.000726235 -0.0169865 0)
(-0.0177542 0.0547988 0)
(-0.0450741 0.0525047 0)
(-0.0712171 0.0474482 0)
(-0.0938996 0.0403769 0)
(-0.112718 0.031465 0)
(-0.126228 0.0208032 0)
(-0.133638 0.00944496 0)
(-0.135349 -0.000794744 0)
(-0.131838 -0.00980901 0)
(-0.124074 -0.0163138 0)
(-0.113992 -0.0201936 0)
(-0.103087 -0.0218459 0)
(-0.0922694 -0.0215483 0)
(-0.082032 -0.0200061 0)
(-0.072392 -0.0182999 0)
(-0.0625188 -0.017668 0)
(-0.0525436 -0.016737 0)
(-0.0425903 -0.0165906 0)
(-0.0321428 -0.0174184 0)
(-0.0226059 -0.018049 0)
(-0.0138678 -0.0188159 0)
(-0.00807502 -0.0181052 0)
(0.00477288 -0.0207753 0)
(-0.0163937 0.0633403 0)
(-0.0431299 0.0602142 0)
(-0.0689685 0.0550404 0)
(-0.0917688 0.047704 0)
(-0.110726 0.0378755 0)
(-0.123907 0.0255327 0)
(-0.130163 0.0119264 0)
(-0.130469 -0.00175906 0)
(-0.125765 -0.0130369 0)
(-0.117484 -0.0207177 0)
(-0.108527 -0.0246285 0)
(-0.100035 -0.0258243 0)
(-0.0915223 -0.0252033 0)
(-0.0827346 -0.0238664 0)
(-0.0732033 -0.0230773 0)
(-0.0617388 -0.0239103 0)
(-0.0505595 -0.0237029 0)
(-0.039844 -0.0237686 0)
(-0.0271846 -0.024384 0)
(-0.0165128 -0.0242498 0)
(-0.00878028 -0.0244131 0)
(-0.00737149 -0.0240081 0)
(0.00799013 -0.0224041 0)
(-0.012763 0.0805873 0)
(-0.0369208 0.0753849 0)
(-0.0618612 0.0676388 0)
(-0.0843653 0.0577915 0)
(-0.103345 0.0456491 0)
(-0.11693 0.0311673 0)
(-0.124198 0.0157104 0)
(-0.124371 0.000428106 0)
(-0.116811 -0.0115827 0)
(-0.10845 -0.019559 0)
(-0.0998259 -0.0242178 0)
(-0.0907439 -0.0268327 0)
(-0.0784703 -0.0279091 0)
(-0.0642164 -0.0272013 0)
(-0.0487191 -0.0258481 0)
(-0.0318643 -0.0266683 0)
(-0.0206952 -0.0222948 0)
(-0.0102017 -0.0222932 0)
(0.00422326 -0.0226396 0)
(0.0162673 -0.019123 0)
(0.0194329 -0.0135112 0)
(0.0093357 -0.019469 0)
(0.0157268 -0.0259211 0)
(0.0076544 0.100014 0)
(0.0135787 0.0967728 0)
(0.0106758 0.0884248 0)
(0.00186397 0.075849 0)
(-0.0105722 0.0583127 0)
(-0.0206021 0.0359557 0)
(-0.0223743 0.0114145 0)
(-0.0131132 -0.00979863 0)
(-0.00706489 -0.0266172 0)
(-0.00974135 -0.0346526 0)
(-0.0124674 -0.0386409 0)
(-0.0125883 -0.0409284 0)
(-0.00674309 -0.0426645 0)
(-0.00267618 -0.0390884 0)
(0.00576975 -0.0379122 0)
(0.0178938 -0.0360525 0)
(0.0191412 -0.032602 0)
(0.0416031 -0.0355644 0)
(0.0607485 -0.0371003 0)
(0.0752442 -0.032169 0)
(0.08641 -0.01917 0)
(0.0847145 -0.0101252 0)
(0.0602656 0.013627 0)
(0.00477159 0.00122493 0)
(-0.000209951 0.00579279 0)
(-0.0174812 0.00520132 0)
(-0.0238698 0.00308192 0)
(-0.0291314 0.0022188 0)
(-0.0354854 0.00181793 0)
(-0.0432796 0.000647913 0)
(-0.0464961 -0.00109635 0)
(-0.0443413 -0.00195312 0)
(-0.0367959 -0.00296557 0)
(-0.0270135 -0.0019491 0)
(-0.0248485 -0.000155086 0)
(-0.0322605 -0.000733783 0)
(-0.0422004 -0.0011584 0)
(-0.0452282 -0.00158753 0)
(-0.0447629 -0.00163813 0)
(-0.0414509 -0.00296131 0)
(-0.0309242 -0.00415919 0)
(-0.0110342 -0.00387314 0)
(0.00396151 -0.00457739 0)
(-0.000381794 0.00311779 0)
(-0.0130458 0.00293839 0)
(-0.0134754 0.00123424 0)
(-0.0162562 0.000827015 0)
(-0.0206584 0.00401052 0)
(-0.024462 0.00430502 0)
(-0.0287619 0.00191256 0)
(-0.0300707 -0.00197711 0)
(-0.0217882 -0.00661195 0)
(-0.00901497 -0.00288518 0)
(-0.00258217 0.00281011 0)
(-0.0129094 0.00769088 0)
(-0.0313842 0.00855278 0)
(-0.0433655 0.00262601 0)
(-0.0495786 0.000231132 0)
(-0.0464772 -0.0033271 0)
(-0.035523 -0.0106503 0)
(-0.0130675 -0.013221 0)
(-0.0472924 -0.000422811 0)
(-0.0779914 0.0189988 0)
(-0.080726 0.0176553 0)
(-0.019991 0.00752615 0)
(0.00479045 0.0073672 0)
(0.013277 0.00637652 0)
(0.00436583 0.00478636 0)
(-0.016394 0.000898167 0)
(-0.0291758 -0.00581478 0)
(-0.0356394 -0.0121721 0)
(-0.0356787 -0.00929482 0)
(-0.019499 0.00235044 0)
(-0.0197668 0.0115144 0)
(-0.0386941 0.012602 0)
(-0.0678183 0.00621858 0)
(-0.0796905 0.000477315 0)
(-0.0677086 -0.00866545 0)
(-0.0485869 -0.0187177 0)
(-0.0185583 -0.021978 0)
(-0.189111 0.0592019 0)
(-0.200215 0.0287311 0)
(-0.056854 -0.0429037 0)
(0.0627324 -0.041269 0)
(0.16938 -0.0177063 0)
(0.243767 0.00522277 0)
(0.240653 0.0231054 0)
(0.186344 0.0226244 0)
(0.102237 0.011694 0)
(0.0087179 -0.00469908 0)
(-0.0182727 -0.011172 0)
(-0.0204787 -0.00667943 0)
(-0.0193242 0.0151713 0)
(-0.0488379 0.026795 0)
(-0.0831168 0.0168102 0)
(-0.0988721 -0.000541677 0)
(-0.0870047 -0.0191732 0)
(-0.0592073 -0.0357579 0)
(-0.0166024 -0.0483425 0)
(-0.157946 0.112148 0)
(0.000755311 -0.0145913 0)
(0.0544425 -0.0911467 0)
(0.110199 -0.0883562 0)
(0.178389 -0.067354 0)
(0.251382 -0.024507 0)
(0.288098 0.0219975 0)
(0.278787 0.0465325 0)
(0.240134 0.0545891 0)
(0.221113 0.02652 0)
(0.212092 0.00182998 0)
(0.184139 0.00645983 0)
(0.0771717 0.0392611 0)
(0.00516021 0.04896 0)
(-0.0190277 0.02876 0)
(-0.0503634 0.00340183 0)
(-0.0691338 -0.0334353 0)
(-0.0109606 -0.051124 0)
(0.0216868 -0.044159 0)
(-0.131957 0.134777 0)
(0.155556 -0.0705355 0)
(0.147654 -0.105465 0)
(0.165006 -0.105319 0)
(0.194773 -0.0914589 0)
(0.238529 -0.042838 0)
(0.26589 0.0231727 0)
(0.262656 0.0522396 0)
(0.255855 0.0529891 0)
(0.255128 0.0264276 0)
(0.236751 0.01124 0)
(0.190031 0.0384316 0)
(0.109438 0.0740448 0)
(0.066579 0.0620257 0)
(0.0833841 0.0328985 0)
(0.0889893 0.0149405 0)
(0.106703 -0.0290597 0)
(0.0994379 -0.059301 0)
(0.0854805 -0.0385275 0)
(-0.0108144 0.145941 0)
(0.234164 -0.0822188 0)
(0.240641 -0.107856 0)
(0.223238 -0.103412 0)
(0.212928 -0.100796 0)
(0.22944 -0.0565766 0)
(0.244837 0.0173294 0)
(0.2439 0.0506581 0)
(0.247793 0.0465469 0)
(0.253735 0.0299238 0)
(0.23257 0.0304766 0)
(0.178978 0.0627557 0)
(0.10738 0.0976799 0)
(0.0759612 0.0627368 0)
(0.111077 0.0177738 0)
(0.137016 0.00807041 0)
(0.141432 -0.0269053 0)
(0.100473 -0.0469286 0)
(0.100353 0.0134291 0)
(0.292263 -0.0417701 0)
(0.336307 -0.120627 0)
(0.324649 -0.111911 0)
(0.282966 -0.084395 0)
(0.223546 -0.088756 0)
(0.200776 -0.0565803 0)
(0.20738 0.0188464 0)
(0.216388 0.0497886 0)
(0.22564 0.0397293 0)
(0.229434 0.0342295 0)
(0.207576 0.0509278 0)
(0.15715 0.0892519 0)
(0.100893 0.118045 0)
(0.0823907 0.0614468 0)
(0.10884 -0.00685662 0)
(0.128187 0.000713876 0)
(0.113421 -0.014071 0)
(0.041818 -0.0404156 0)
(0.0677049 0.0432111 0)
(0.0113993 0.0701339 0)
(0.0328636 0.0758258 0)
(0.0431204 0.0745094 0)
(0.053883 0.0674591 0)
(0.065551 0.0545993 0)
(0.0747252 0.0365696 0)
(0.0789777 0.0158172 0)
(0.0775803 -0.00103135 0)
(0.0708329 -0.0106671 0)
(0.0633344 -0.0162342 0)
(0.0579918 -0.0218585 0)
(0.0554482 -0.0272285 0)
(0.054169 -0.0318721 0)
(0.0548038 -0.0318287 0)
(0.0617974 -0.0388734 0)
(0.0725766 -0.0369902 0)
(0.0830197 -0.0339301 0)
(0.0928934 -0.0374116 0)
(0.102952 -0.0415886 0)
(0.114018 -0.0402846 0)
(0.131016 -0.0321769 0)
(0.157426 -0.0220736 0)
(0.20277 0.00235979 0)
(0.00490505 0.0528645 0)
(0.0200354 0.0633587 0)
(0.0298154 0.0626617 0)
(0.0453478 0.051042 0)
(0.0597181 0.0378329 0)
(0.0689398 0.0246345 0)
(0.0727933 0.0106706 0)
(0.0715573 -0.000903635 0)
(0.0668021 -0.0102092 0)
(0.0618833 -0.018593 0)
(0.0596646 -0.0277884 0)
(0.0605509 -0.0356357 0)
(0.0624499 -0.0392695 0)
(0.0658568 -0.042202 0)
(0.0706939 -0.0531333 0)
(0.0759507 -0.0541915 0)
(0.0828999 -0.0527914 0)
(0.0917153 -0.0574363 0)
(0.103732 -0.0588585 0)
(0.11309 -0.0555858 0)
(0.123389 -0.0548423 0)
(0.142226 -0.0578069 0)
(0.178052 -0.060911 0)
(0.000210624 0.0467948 0)
(0.0129332 0.0518204 0)
(0.0271275 0.0465079 0)
(0.0477702 0.0333124 0)
(0.0591672 0.0278834 0)
(0.0604625 0.0224183 0)
(0.0564383 0.0131689 0)
(0.053397 0.00520744 0)
(0.0539451 -0.00273769 0)
(0.0576291 -0.0134823 0)
(0.0613217 -0.0255738 0)
(0.0639731 -0.0343531 0)
(0.0654363 -0.0382155 0)
(0.0662482 -0.0427126 0)
(0.0630745 -0.0498391 0)
(0.0561635 -0.0530054 0)
(0.0518542 -0.0508118 0)
(0.0509184 -0.0621499 0)
(0.0599759 -0.0646648 0)
(0.0677801 -0.0597598 0)
(0.0751282 -0.0661532 0)
(0.0909671 -0.0772396 0)
(0.115885 -0.084756 0)
(-0.0110481 0.0349396 0)
(0.00830086 0.0328477 0)
(0.0264338 0.0266442 0)
(0.0454899 0.0182418 0)
(0.0540751 0.0244627 0)
(0.0550555 0.0260585 0)
(0.0531967 0.0165867 0)
(0.0514414 0.00209325 0)
(0.0493228 -0.0142315 0)
(0.046119 -0.0238878 0)
(0.0391458 -0.0318964 0)
(0.0301656 -0.0369769 0)
(0.0251999 -0.0411674 0)
(0.0248334 -0.0439645 0)
(0.02253 -0.0432653 0)
(0.0104044 -0.0417424 0)
(-0.0102841 -0.0401685 0)
(-0.0181347 -0.0659731 0)
(-0.0131574 -0.0748967 0)
(-0.00328112 -0.0644078 0)
(0.0033956 -0.0771471 0)
(0.0111975 -0.0893542 0)
(0.0177134 -0.0951993 0)
(-0.0185957 0.0494034 0)
(-0.00548872 0.0164984 0)
(0.00983975 0.0030697 0)
(0.0194134 0.00750946 0)
(0.028198 0.0211064 0)
(0.0370515 0.0239452 0)
(0.0453538 0.0161582 0)
(0.0476417 0.0117812 0)
(0.0395367 0.00104158 0)
(0.021039 -0.00386375 0)
(0.00126202 -0.013501 0)
(-0.0105786 -0.0269222 0)
(-0.0114621 -0.0413823 0)
(-0.0125446 -0.0431936 0)
(-0.0109564 -0.0390745 0)
(-0.0197936 -0.0218341 0)
(-0.0246633 -0.032342 0)
(-0.0207967 -0.0667122 0)
(-0.0182765 -0.0819754 0)
(-0.0199043 -0.0692456 0)
(-0.0230614 -0.080708 0)
(-0.0300677 -0.0901427 0)
(-0.0373425 -0.0864091 0)
(-0.00504849 0.064858 0)
(0.0188322 0.010443 0)
(0.00978479 0.00119255 0)
(0.0100574 0.00340579 0)
(0.0165311 0.00955267 0)
(0.028656 0.0108086 0)
(0.040647 0.00935001 0)
(0.0489019 0.0139754 0)
(0.0535829 0.0124933 0)
(0.0557644 0.00982147 0)
(0.0561332 0.00195263 0)
(0.0507404 -0.0134205 0)
(0.0376455 -0.0297975 0)
(0.0210594 -0.0366534 0)
(0.00755316 -0.0358136 0)
(0.00502116 -0.0245839 0)
(0.0147634 -0.0370873 0)
(0.0206811 -0.0639732 0)
(0.0123458 -0.0742021 0)
(0.00178498 -0.0636925 0)
(-0.00124342 -0.0736129 0)
(-0.0104195 -0.0824394 0)
(-0.0148043 -0.0814889 0)
(0.0344008 0.0185421 0)
(0.0482252 0.0015363 0)
(0.0377437 0.00270027 0)
(0.0294591 -0.000601431 0)
(0.0333616 -0.00695919 0)
(0.0426891 -0.0100818 0)
(0.052472 -0.00852888 0)
(0.0615949 -0.00443238 0)
(0.0679025 -0.00340881 0)
(0.0693815 -0.00439736 0)
(0.0681495 -0.00583471 0)
(0.0645484 -0.00844715 0)
(0.0557622 -0.0112394 0)
(0.0434523 -0.0153928 0)
(0.0308828 -0.0192862 0)
(0.0264386 -0.0286711 0)
(0.0333407 -0.0484923 0)
(0.0412712 -0.0684767 0)
(0.045962 -0.071364 0)
(0.0504964 -0.0650317 0)
(0.0541805 -0.0706742 0)
(0.0455833 -0.0810324 0)
(0.0403232 -0.0893917 0)
(-0.076137 -0.0029191 0)
(-0.110421 0.0184808 0)
(-0.0902083 0.0174163 0)
(-0.0746883 0.0106408 0)
(-0.0810088 -0.000886364 0)
(-0.15834 -0.00177635 0)
(-0.162518 -0.00832372 0)
(-0.11879 -0.00104924 0)
(-0.07444 0.00541179 0)
(-0.0447167 0.00860514 0)
(-0.0226647 0.00357876 0)
(-0.0023542 -0.00146491 0)
(0.0140648 -0.00509909 0)
(0.0301693 -0.0124793 0)
(0.0443518 -0.0161759 0)
(0.0552195 -0.0254235 0)
(0.0573374 -0.0422767 0)
(0.0575506 -0.0592047 0)
(0.0695506 -0.0641609 0)
(0.0916663 -0.0640279 0)
(0.107069 -0.0684109 0)
(0.100014 -0.0776512 0)
(0.086595 -0.0923952 0)
(0.0237981 0.13528 0)
(0.0462193 0.0368708 0)
(0.076991 -0.0358521 0)
(0.0752427 -0.00803804 0)
(0.0918163 0.0398324 0)
(0.0648246 0.0781396 0)
(0.123985 -0.0135331 0)
(0.0777579 -0.0644459 0)
(-0.00257092 -0.0373657 0)
(-0.0460165 -0.034725 0)
(-0.129567 -0.0374366 0)
(-0.137492 -0.0462274 0)
(-0.103583 -0.0434247 0)
(-0.0795355 -0.0443121 0)
(-0.000404361 -0.0426141 0)
(0.0534023 -0.0432175 0)
(0.0555908 -0.0564848 0)
(-0.00393583 -0.0787626 0)
(-0.0288199 -0.114401 0)
(0.0414024 -0.105135 0)
(0.106568 -0.0695154 0)
(0.155039 -0.0473573 0)
(0.171935 -0.0503071 0)
(0.0299762 0.00163628 0)
(0.0700655 -0.0206924 0)
(0.0820435 -0.0201085 0)
(0.0864978 -0.0138938 0)
(0.104043 -0.00234211 0)
(0.134483 -0.00635571 0)
(0.162679 -0.00337851 0)
(0.183877 0.0211923 0)
(0.210156 0.0578889 0)
(0.245673 0.067398 0)
(0.256475 0.0701986 0)
(0.286374 -0.0162127 0)
(0.294451 -0.0778101 0)
(0.303908 -0.0959175 0)
(0.308785 -0.126621 0)
(0.29143 -0.0919422 0)
(0.270454 0.0183448 0)
(0.242217 0.0381988 0)
(0.207087 -0.148625 0)
(0.191233 -0.20918 0)
(0.184436 -0.177731 0)
(0.188758 -0.117374 0)
(0.204685 -0.0554575 0)
(0.0130025 -0.0169629 0)
(0.037772 -0.023757 0)
(0.0511422 -0.0275509 0)
(0.0606585 -0.0247069 0)
(0.0712336 -0.0183347 0)
(0.0843078 -0.0184837 0)
(0.0982352 -0.033803 0)
(0.118137 -0.0484369 0)
(0.150866 -0.0428538 0)
(0.191358 -0.0346778 0)
(0.232467 -0.0391029 0)
(0.259778 -0.0720798 0)
(0.274821 -0.090563 0)
(0.283527 -0.0915438 0)
(0.290071 -0.0821375 0)
(0.304545 -0.0552748 0)
(0.341983 -0.0127003 0)
(0.410576 0.00785386 0)
(0.450947 -0.0375047 0)
(0.438084 -0.0888088 0)
(0.403458 -0.0942707 0)
(0.380367 -0.0763743 0)
(0.378025 -0.0625785 0)
(0.00640764 -0.0423352 0)
(0.0220779 -0.0424255 0)
(0.0314263 -0.0368607 0)
(0.0385957 -0.0321466 0)
(0.0432705 -0.0275776 0)
(0.0478877 -0.0285673 0)
(0.0591182 -0.0498478 0)
(0.0774102 -0.0638676 0)
(0.0994295 -0.0539555 0)
(0.124545 -0.038324 0)
(0.148486 -0.0426094 0)
(0.169507 -0.0690248 0)
(0.186099 -0.0886865 0)
(0.193388 -0.0978056 0)
(0.194492 -0.101474 0)
(0.201291 -0.0963144 0)
(0.225601 -0.0892054 0)
(0.266522 -0.101005 0)
(0.304366 -0.131461 0)
(0.323646 -0.142231 0)
(0.328645 -0.123801 0)
(0.331342 -0.0929893 0)
(0.331776 -0.0680934 0)
(0.0030653 -0.0532774 0)
(0.012704 -0.0512978 0)
(0.0182127 -0.0425206 0)
(0.0237359 -0.0360544 0)
(0.026789 -0.0307161 0)
(0.0308387 -0.0332728 0)
(0.0387088 -0.0641962 0)
(0.047028 -0.0776439 0)
(0.0544677 -0.0711385 0)
(0.0688186 -0.0588668 0)
(0.0861983 -0.0708768 0)
(0.102396 -0.0952824 0)
(0.116532 -0.104343 0)
(0.122383 -0.102051 0)
(0.121372 -0.100753 0)
(0.123757 -0.097951 0)
(0.135884 -0.0995506 0)
(0.15783 -0.112027 0)
(0.180469 -0.127149 0)
(0.195095 -0.125877 0)
(0.197429 -0.107882 0)
(0.194154 -0.0811432 0)
(0.184359 -0.0581651 0)
(0.00102665 -0.0591581 0)
(0.00672477 -0.056531 0)
(0.00969278 -0.0468766 0)
(0.0147518 -0.03995 0)
(0.0194416 -0.0350178 0)
(0.0274743 -0.039386 0)
(0.0309015 -0.0678904 0)
(0.0286993 -0.0792008 0)
(0.0272067 -0.075094 0)
(0.033537 -0.070799 0)
(0.0447763 -0.0855782 0)
(0.0530447 -0.106872 0)
(0.0606626 -0.109501 0)
(0.0656841 -0.101378 0)
(0.0650514 -0.100611 0)
(0.0642861 -0.102555 0)
(0.0663465 -0.11582 0)
(0.0722823 -0.137247 0)
(0.0785516 -0.149123 0)
(0.0821533 -0.138365 0)
(0.0778661 -0.114133 0)
(0.0682254 -0.0838862 0)
(0.0509991 -0.0552418 0)
(-0.000407468 -0.0616026 0)
(0.00257538 -0.0592909 0)
(0.00370654 -0.0503936 0)
(0.00810698 -0.0446927 0)
(0.0135278 -0.0420454 0)
(0.0226406 -0.0468543 0)
(0.0250992 -0.0658459 0)
(0.0200936 -0.0758231 0)
(0.0172744 -0.074636 0)
(0.0191909 -0.0769787 0)
(0.0227768 -0.0911069 0)
(0.0223571 -0.110504 0)
(0.021737 -0.111896 0)
(0.0238138 -0.102206 0)
(0.0232827 -0.0984279 0)
(0.0206012 -0.0989138 0)
(0.0159106 -0.113284 0)
(0.00858805 -0.135477 0)
(-0.000496322 -0.142024 0)
(-0.0124229 -0.123569 0)
(-0.0267566 -0.0900802 0)
(-0.0493531 -0.0473503 0)
(-0.0759552 0.00333697 0)
(-0.00154059 -0.0616446 0)
(-0.000516646 -0.060047 0)
(-0.000913826 -0.0526751 0)
(0.00209181 -0.0487751 0)
(0.00605741 -0.0483656 0)
(0.012348 -0.0530291 0)
(0.0146069 -0.0647427 0)
(0.0115816 -0.0723843 0)
(0.0101602 -0.0739733 0)
(0.0113871 -0.0782086 0)
(0.0116074 -0.0903171 0)
(0.00615815 -0.105919 0)
(-0.00114768 -0.108222 0)
(-0.00412871 -0.101042 0)
(-0.0060376 -0.0949213 0)
(-0.00899792 -0.0939488 0)
(-0.0160482 -0.104142 0)
(-0.0306055 -0.121294 0)
(-0.0496572 -0.121061 0)
(-0.0683161 -0.102561 0)
(-0.0816872 -0.0713468 0)
(-0.0899999 -0.0332096 0)
(-0.0973264 0.0114964 0)
(-0.00241168 -0.0599311 0)
(-0.00289737 -0.0591265 0)
(-0.00467278 -0.0534841 0)
(-0.00328353 -0.0511858 0)
(-0.00119288 -0.0520886 0)
(0.0018205 -0.0563887 0)
(0.00257132 -0.0642897 0)
(0.000644572 -0.070342 0)
(-0.00038789 -0.0738867 0)
(0.000236646 -0.0787976 0)
(-0.000247287 -0.0877896 0)
(-0.00596962 -0.0980896 0)
(-0.0143602 -0.10095 0)
(-0.0202799 -0.0968245 0)
(-0.0233969 -0.091716 0)
(-0.0252735 -0.0897279 0)
(-0.0294644 -0.094585 0)
(-0.0418893 -0.10493 0)
(-0.0597358 -0.10387 0)
(-0.0755115 -0.0901205 0)
(-0.0837934 -0.066616 0)
(-0.0835825 -0.0307441 0)
(-0.078613 0.0188201 0)
(-0.00306281 -0.0568448 0)
(-0.00476274 -0.0569039 0)
(-0.00767842 -0.0529413 0)
(-0.0076636 -0.0519054 0)
(-0.00712975 -0.0535202 0)
(-0.00627925 -0.0575304 0)
(-0.00658659 -0.0634071 0)
(-0.00800927 -0.0686982 0)
(-0.00919236 -0.0731379 0)
(-0.00999667 -0.0782377 0)
(-0.0119402 -0.0847942 0)
(-0.0167597 -0.0912551 0)
(-0.0234666 -0.0938737 0)
(-0.0291148 -0.0921838 0)
(-0.0324424 -0.0893054 0)
(-0.0341177 -0.0877222 0)
(-0.0366117 -0.0893756 0)
(-0.0438198 -0.0929437 0)
(-0.0549157 -0.090484 0)
(-0.0653977 -0.0803073 0)
(-0.0722299 -0.0647084 0)
(-0.0719604 -0.0362446 0)
(-0.0622283 0.00644882 0)
(-0.00358563 -0.052661 0)
(-0.00630166 -0.0536274 0)
(-0.0101569 -0.0512727 0)
(-0.0112073 -0.051418 0)
(-0.01174 -0.0536252 0)
(-0.0119053 -0.0575303 0)
(-0.0125094 -0.0624594 0)
(-0.0135631 -0.0673041 0)
(-0.0147021 -0.0718226 0)
(-0.0160937 -0.0764923 0)
(-0.0185555 -0.0814394 0)
(-0.0227378 -0.0857575 0)
(-0.0280337 -0.0878845 0)
(-0.032995 -0.0876361 0)
(-0.0368065 -0.0863801 0)
(-0.0397769 -0.0855032 0)
(-0.0432515 -0.0856936 0)
(-0.0485963 -0.0856609 0)
(-0.0549415 -0.0820111 0)
(-0.0600724 -0.0736079 0)
(-0.063448 -0.0612592 0)
(-0.0626192 -0.0404665 0)
(-0.0536191 -0.00845324 0)
(-0.00405186 -0.0475277 0)
(-0.00770258 -0.0494163 0)
(-0.0124277 -0.0486686 0)
(-0.0143917 -0.050049 0)
(-0.0156909 -0.0529863 0)
(-0.0163615 -0.0570718 0)
(-0.016961 -0.061728 0)
(-0.0176354 -0.0663189 0)
(-0.0184474 -0.0706007 0)
(-0.0196758 -0.0746518 0)
(-0.0218049 -0.0784154 0)
(-0.0251178 -0.0814146 0)
(-0.0292869 -0.0830141 0)
(-0.0336179 -0.0831915 0)
(-0.0376835 -0.0825894 0)
(-0.041619 -0.0819305 0)
(-0.0460412 -0.0814542 0)
(-0.0513706 -0.0802968 0)
(-0.0568945 -0.076824 0)
(-0.061134 -0.070161 0)
(-0.0628201 -0.0600285 0)
(-0.0606403 -0.0453708 0)
(-0.0528216 -0.0241487 0)
(-0.00452627 -0.0414735 0)
(-0.0091154 -0.0442796 0)
(-0.0147268 -0.0451615 0)
(-0.0175933 -0.0478782 0)
(-0.0195994 -0.0517558 0)
(-0.0206871 -0.0563604 0)
(-0.0212999 -0.0611801 0)
(-0.0216819 -0.0657339 0)
(-0.0220979 -0.0697678 0)
(-0.0228873 -0.0732343 0)
(-0.0244059 -0.0760811 0)
(-0.0268271 -0.0781121 0)
(-0.03 -0.0791095 0)
(-0.0335877 -0.0791307 0)
(-0.037368 -0.0785188 0)
(-0.0413993 -0.0776531 0)
(-0.045947 -0.07663 0)
(-0.0511109 -0.0749979 0)
(-0.0563956 -0.0719704 0)
(-0.0607899 -0.0670093 0)
(-0.0631937 -0.0597541 0)
(-0.0623736 -0.0496426 0)
(-0.0573176 -0.0357977 0)
(-0.00501745 -0.0344793 0)
(-0.0105563 -0.0381941 0)
(-0.0170747 -0.0407344 0)
(-0.0208366 -0.0449012 0)
(-0.0235187 -0.0499447 0)
(-0.0249961 -0.0553939 0)
(-0.0256486 -0.0607291 0)
(-0.0257952 -0.0654799 0)
(-0.0258289 -0.0693699 0)
(-0.0261537 -0.0723438 0)
(-0.0270976 -0.0744425 0)
(-0.0288065 -0.0756825 0)
(-0.0312116 -0.0760696 0)
(-0.034128 -0.0757044 0)
(-0.0374172 -0.0747913 0)
(-0.0410836 -0.0735344 0)
(-0.0452288 -0.0719866 0)
(-0.0498591 -0.0699471 0)
(-0.054676 -0.0670727 0)
(-0.0590695 -0.0631074 0)
(-0.0623403 -0.0578566 0)
(-0.0636761 -0.0509334 0)
(-0.0622697 -0.0415807 0)
(-0.00552047 -0.0265397 0)
(-0.0119865 -0.0311679 0)
(-0.0193685 -0.0354176 0)
(-0.0239426 -0.0411737 0)
(-0.0271929 -0.0476241 0)
(-0.0289539 -0.0542281 0)
(-0.029576 -0.0603825 0)
(-0.0294534 -0.0655406 0)
(-0.0290862 -0.0693962 0)
(-0.0289499 -0.0719472 0)
(-0.0293925 -0.0733769 0)
(-0.0305678 -0.0738941 0)
(-0.0324459 -0.0736628 0)
(-0.0348945 -0.0728258 0)
(-0.037786 -0.0715227 0)
(-0.0410653 -0.0698656 0)
(-0.044736 -0.0678861 0)
(-0.0487687 -0.0655061 0)
(-0.0529849 -0.062596 0)
(-0.0570473 -0.0590739 0)
(-0.0606226 -0.0548705 0)
(-0.0632422 -0.0497025 0)
(-0.0642133 -0.0428715 0)
(-0.00600806 -0.0176848 0)
(-0.0133376 -0.0232617 0)
(-0.0214881 -0.0293077 0)
(-0.0267314 -0.036826 0)
(-0.0303866 -0.0449392 0)
(-0.0322739 -0.0529929 0)
(-0.032746 -0.06023 0)
(-0.0322828 -0.0659678 0)
(-0.0314831 -0.0698692 0)
(-0.0308859 -0.072024 0)
(-0.0308698 -0.0727896 0)
(-0.0316108 -0.072569 0)
(-0.0331071 -0.0716731 0)
(-0.0352453 -0.0703046 0)
(-0.0378817 -0.0685815 0)
(-0.0409032 -0.0665613 0)
(-0.0442405 -0.0642522 0)
(-0.0478303 -0.0616227 0)
(-0.0515504 -0.0586355 0)
(-0.055197 -0.0552978 0)
(-0.0586156 -0.0516149 0)
(-0.0615573 -0.047354 0)
(-0.0633962 -0.04188 0)
(-0.00647926 -0.00799338 0)
(-0.0145903 -0.0145774 0)
(-0.0233699 -0.022546 0)
(-0.0291065 -0.0320261 0)
(-0.0329878 -0.0420611 0)
(-0.0348418 -0.0518332 0)
(-0.0350509 -0.060368 0)
(-0.0341961 -0.066806 0)
(-0.0329647 -0.0707971 0)
(-0.0319314 -0.0725569 0)
(-0.0314934 -0.0726336 0)
(-0.0318471 -0.0716248 0)
(-0.0330196 -0.06999 0)
(-0.0349168 -0.0680155 0)
(-0.0373813 -0.065835 0)
(-0.0402527 -0.0634766 0)
(-0.0434037 -0.0609176 0)
(-0.0467356 -0.0581275 0)
(-0.0501387 -0.0550996 0)
(-0.0534733 -0.0518772 0)
(-0.0566668 -0.0485049 0)
(-0.0595457 -0.0447937 0)
(-0.0615696 -0.0401496 0)
(-0.00692722 0.00243391 0)
(-0.0157316 -0.0052702 0)
(-0.0249891 -0.0152998 0)
(-0.0310324 -0.0269515 0)
(-0.0349697 -0.0391541 0)
(-0.0366509 -0.0508758 0)
(-0.0365112 -0.060865 0)
(-0.0352515 -0.068061 0)
(-0.0336308 -0.0721477 0)
(-0.0322193 -0.0735039 0)
(-0.0314104 -0.0728699 0)
(-0.0314115 -0.0710286 0)
(-0.0322775 -0.0685829 0)
(-0.0339446 -0.0659194 0)
(-0.0362583 -0.0632201 0)
(-0.0390283 -0.0605091 0)
(-0.0420833 -0.057732 0)
(-0.0452911 -0.0548316 0)
(-0.0485399 -0.0517977 0)
(-0.0517167 -0.0486865 0)
(-0.0547728 -0.0455645 0)
(-0.0575885 -0.0422803 0)
(-0.0596544 -0.0382815 0)
(-0.00732102 0.0136658 0)
(-0.0167244 0.00457018 0)
(-0.0263203 -0.00775046 0)
(-0.0324946 -0.0217733 0)
(-0.0363412 -0.0363613 0)
(-0.0377429 -0.0502176 0)
(-0.0372004 -0.0617566 0)
(-0.035561 -0.0697 0)
(-0.0336291 -0.073856 0)
(-0.0319203 -0.0748003 0)
(-0.0308065 -0.0734501 0)
(-0.030494 -0.0707558 0)
(-0.031061 -0.0674479 0)
(-0.032483 -0.06402 0)
(-0.0346308 -0.0607293 0)
(-0.0373042 -0.0576215 0)
(-0.0402985 -0.0546189 0)
(-0.0434522 -0.051624 0)
(-0.0466422 -0.0485965 0)
(-0.0497663 -0.0455868 0)
(-0.0527927 -0.0426778 0)
(-0.0556136 -0.0397607 0)
(-0.0577648 -0.0363133 0)
(-0.00762555 0.0254646 0)
(-0.0174899 0.0149182 0)
(-0.0272949 -6.70471e-05 0)
(-0.0334706 -0.0166429 0)
(-0.0371222 -0.0337884 0)
(-0.0381778 -0.0499185 0)
(-0.0372118 -0.0630437 0)
(-0.035256 -0.0716525 0)
(-0.033119 -0.0758302 0)
(-0.0312104 -0.0763652 0)
(-0.0298709 -0.0743171 0)
(-0.0292941 -0.0707829 0)
(-0.0295702 -0.0665935 0)
(-0.0307191 -0.0623417 0)
(-0.0326616 -0.0583825 0)
(-0.035213 -0.0548138 0)
(-0.0381473 -0.0515494 0)
(-0.0412711 -0.0484479 0)
(-0.044448 -0.0454216 0)
(-0.0475792 -0.0424948 0)
(-0.0506351 -0.0397628 0)
(-0.0535328 -0.0371627 0)
(-0.0558027 -0.0342037 0)
(-0.0078423 0.0374962 0)
(-0.0179939 0.025444 0)
(-0.0278489 0.00770862 0)
(-0.0339035 -0.0116721 0)
(-0.0373139 -0.0314888 0)
(-0.0379974 -0.050013 0)
(-0.0366161 -0.0647033 0)
(-0.0344436 -0.0738103 0)
(-0.0322283 -0.0779575 0)
(-0.0302355 -0.0781028 0)
(-0.0287692 -0.0753986 0)
(-0.0279974 -0.071075 0)
(-0.0280054 -0.0660306 0)
(-0.0288503 -0.0609266 0)
(-0.0305264 -0.0562242 0)
(-0.0328999 -0.0521134 0)
(-0.0357437 -0.0485284 0)
(-0.0388321 -0.0452854 0)
(-0.0420018 -0.0422385 0)
(-0.0451528 -0.0393704 0)
(-0.0482658 -0.0367764 0)
(-0.0512581 -0.0344383 0)
(-0.0536814 -0.0319066 0)
(-0.00736116 0.0501234 0)
(-0.0177367 0.0360178 0)
(-0.0277116 0.0154234 0)
(-0.0336342 -0.00689322 0)
(-0.0368352 -0.0294644 0)
(-0.0371555 -0.0505189 0)
(-0.0354145 -0.0666948 0)
(-0.0331589 -0.0760379 0)
(-0.0310014 -0.0801121 0)
(-0.0290641 -0.0798972 0)
(-0.0276029 -0.0765971 0)
(-0.0267398 -0.0715713 0)
(-0.0265373 -0.0657541 0)
(-0.0270667 -0.0598237 0)
(-0.0284049 -0.0543261 0)
(-0.0305126 -0.0495787 0)
(-0.0332006 -0.0455888 0)
(-0.0362188 -0.0421507 0)
(-0.0393669 -0.039049 0)
(-0.0425316 -0.036208 0)
(-0.0456924 -0.0337085 0)
(-0.0487863 -0.0315786 0)
(-0.051355 -0.0294211 0)
(-0.00625244 0.0614454 0)
(-0.0160872 0.0469296 0)
(-0.0262798 0.023095 0)
(-0.032258 -0.00224463 0)
(-0.0352679 -0.0276627 0)
(-0.0353597 -0.0513341 0)
(-0.0335112 -0.0689028 0)
(-0.031352 -0.0782233 0)
(-0.0293568 -0.0821651 0)
(-0.0276444 -0.0816002 0)
(-0.0263697 -0.0777725 0)
(-0.0255706 -0.0721652 0)
(-0.0252686 -0.0657175 0)
(-0.0255196 -0.0590635 0)
(-0.026468 -0.0527754 0)
(-0.0282012 -0.0473042 0)
(-0.0306291 -0.0427981 0)
(-0.0335095 -0.0390842 0)
(-0.0365957 -0.0358805 0)
(-0.0397415 -0.0330313 0)
(-0.0429249 -0.0305824 0)
(-0.0460792 -0.0285992 0)
(-0.0487695 -0.0267583 0)
(-0.00498132 0.0711272 0)
(-0.0135565 0.056778 0)
(-0.0231582 0.0310387 0)
(-0.0292478 0.00245466 0)
(-0.0320469 -0.0259543 0)
(-0.0320415 -0.0521726 0)
(-0.0304686 -0.0710021 0)
(-0.0287156 -0.0802474 0)
(-0.027052 -0.0839473 0)
(-0.0258003 -0.0829988 0)
(-0.0249561 -0.0787207 0)
(-0.0244354 -0.0726876 0)
(-0.0242064 -0.0658103 0)
(-0.0242859 -0.0586237 0)
(-0.0248491 -0.051643 0)
(-0.0261098 -0.0454082 0)
(-0.0281411 -0.0402608 0)
(-0.0307755 -0.0361526 0)
(-0.0337347 -0.0327751 0)
(-0.0368181 -0.0298746 0)
(-0.0399731 -0.0274331 0)
(-0.0431501 -0.0255409 0)
(-0.0459097 -0.0239565 0)
(-0.00353676 0.0789433 0)
(-0.0103551 0.0653619 0)
(-0.018596 0.0382271 0)
(-0.0242598 0.00707719 0)
(-0.0268637 -0.0242657 0)
(-0.0267235 -0.0528044 0)
(-0.0257331 -0.0725737 0)
(-0.0247377 -0.0818301 0)
(-0.0237644 -0.0851651 0)
(-0.0233084 -0.0837892 0)
(-0.0231885 -0.0791703 0)
(-0.0232004 -0.0729101 0)
(-0.0232614 -0.0658553 0)
(-0.0233435 -0.0584062 0)
(-0.0236101 -0.0509445 0)
(-0.0243575 -0.0440053 0)
(-0.0258506 -0.0381174 0)
(-0.0280908 -0.0334638 0)
(-0.0308202 -0.0298036 0)
(-0.0337706 -0.0267936 0)
(-0.036845 -0.0243172 0)
(-0.0399751 -0.0224601 0)
(-0.0427509 -0.0210726 0)
(-0.00184934 0.0843467 0)
(-0.00645909 0.0721871 0)
(-0.0127589 0.0442069 0)
(-0.0173189 0.0112151 0)
(-0.0196225 -0.0226084 0)
(-0.0192529 -0.0530392 0)
(-0.0191025 -0.0733045 0)
(-0.0191643 -0.0825097 0)
(-0.0193466 -0.0854012 0)
(-0.020049 -0.083621 0)
(-0.0209297 -0.0788289 0)
(-0.0217109 -0.0725832 0)
(-0.0222779 -0.0656343 0)
(-0.022571 -0.0582409 0)
(-0.0227112 -0.0506082 0)
(-0.0230036 -0.0431589 0)
(-0.0238639 -0.0365183 0)
(-0.0255382 -0.0311616 0)
(-0.0278993 -0.0270635 0)
(-0.0306335 -0.0238565 0)
(-0.0335557 -0.021296 0)
(-0.0365859 -0.0194238 0)
(-0.0393198 -0.0181733 0)
(-8.71427e-05 0.0869468 0)
(-0.00217808 0.0767455 0)
(-0.00620479 0.048537 0)
(-0.00904106 0.0145448 0)
(-0.0106803 -0.0211904 0)
(-0.00994972 -0.0528203 0)
(-0.0109424 -0.0729301 0)
(-0.0123541 -0.0818414 0)
(-0.0140371 -0.0842826 0)
(-0.0161186 -0.0822216 0)
(-0.0181551 -0.0774742 0)
(-0.019848 -0.071504 0)
(-0.0210763 -0.0649414 0)
(-0.021771 -0.05792 0)
(-0.0220006 -0.0504722 0)
(-0.0220077 -0.042833 0)
(-0.0222502 -0.0355761 0)
(-0.0232117 -0.0294134 0)
(-0.0250296 -0.024684 0)
(-0.0274311 -0.0211479 0)
(-0.0301343 -0.0184383 0)
(-0.03299 -0.0164972 0)
(-0.035618 -0.0153271 0)
(0.00136403 0.0866128 0)
(0.0018837 0.0789781 0)
(0.000265127 0.051101 0)
(-0.000562253 0.0164084 0)
(-0.000779214 -0.0206228 0)
(5.23082e-05 -0.0522411 0)
(-0.0022112 -0.071195 0)
(-0.00510547 -0.0795996 0)
(-0.00837136 -0.0816535 0)
(-0.011813 -0.0795054 0)
(-0.0149631 -0.075037 0)