/*--------------------------------*- C++ -*----------------------------------*\
| =========                 |                                                 |
| \\      /  F ield         | OpenFOAM: The Open Source CFD Toolbox           |
|  \\    /   O peration     | Version:  2312                                  |
|   \\  /    A nd           | Website:  www.openfoam.com                      |
|    \\/     M anipulation  |                                                 |
\*---------------------------------------------------------------------------*/
FoamFile
{
    version     2.0;
    format      ascii;
    arch        "LSB;label=32;scalar=64";
    class       volScalarField;
    location    "0.25";
    object      alpha.air;
}
// * * * * * * * * * * * * * * * * * * * * * * * * * * * * * * * * * * * * * //

dimensions      [0 0 0 0 0 0 0];

internalField   nonuniform List<scalar> 
2268
(
3.80889e-25
3.82092e-25
5.00789e-25
6.3606e-25
9.92961e-25
1.48055e-24
1.50858e-24
1.29391e-24
7.02488e-25
3.25012e-25
2.37655e-25
5.44694e-19
1.93433e-18
3.79875e-18
1.2352e-18
3.00311e-19
1.94278e-19
9.48578e-20
3.82369e-20
1.60578e-20
6.78998e-21
7.2096e-22
1.2734e-22
2.36376e-23
2.76043e-23
2.86411e-23
3.07483e-23
4.27372e-23
5.73912e-23
5.83178e-23
4.37467e-23
2.49906e-23
9.79117e-24
3.46602e-24
1.51004e-17
1.03044e-16
3.32843e-16
9.09517e-17
1.04614e-17
5.15402e-18
3.76926e-18
1.8304e-18
3.99498e-19
4.71532e-20
1.43348e-20
2.31397e-21
5.47417e-22
6.14675e-22
6.41894e-22
8.23391e-22
8.15732e-22
9.54821e-22
8.4023e-22
6.94278e-22
3.35311e-22
1.14461e-22
1.90817e-23
1.83159e-16
1.92456e-15
5.03888e-15
3.22603e-15
3.96738e-15
8.09311e-16
7.95969e-17
2.66621e-17
1.16013e-17
3.5982e-18
1.15081e-18
2.33758e-19
9.35879e-21
1.00248e-20
1.07452e-20
1.24797e-20
9.73717e-21
8.98963e-21
7.58584e-21
5.10099e-21
2.3018e-21
7.45236e-22
3.04545e-23
1.55555e-15
1.12023e-14
7.80904e-14
6.94704e-14
7.86349e-14
4.62418e-14
1.88913e-14
3.58564e-15
7.51942e-16
2.75555e-16
8.36674e-17
1.55243e-17
8.02468e-20
7.85149e-20
7.99045e-20
8.14398e-20
5.93781e-20
4.176e-20
3.00881e-20
1.81492e-20
7.31644e-21
2.35924e-21
3.47006e-21
3.80972e-15
4.66913e-14
3.99959e-13
1.26408e-12
5.77396e-12
6.17242e-12
2.84499e-12
1.15851e-12
2.40028e-13
2.66381e-14
1.47077e-15
5.6111e-17
3.36581e-19
2.76867e-19
2.69534e-19
2.63476e-19
1.76696e-19
9.58369e-20
5.31122e-20
2.79835e-20
1.06356e-20
3.52261e-21
2.04348e-19
1.64076e-14
2.08563e-13
1.81761e-12
1.35212e-11
6.41544e-11
1.16221e-10
8.10149e-11
3.40219e-11
8.83898e-12
1.10561e-12
6.34417e-14
6.29526e-15
4.97614e-19
3.71226e-19
3.24943e-19
3.06027e-19
1.84306e-19
8.9538e-20
4.17647e-20
1.45087e-20
4.42638e-21
1.05847e-21
7.84493e-18
5.08913e-14
1.1432e-12
9.92451e-12
5.16365e-11
1.82364e-10
4.21848e-10
3.77167e-10
2.3406e-10
7.90845e-11
9.06991e-12
2.60274e-13
1.71442e-14
2.67954e-23
2.62878e-23
2.67954e-23
2.62862e-23
2.67937e-23
2.62845e-23
2.6792e-23
2.62845e-23
2.67937e-23
2.62862e-23
1.80192e-14
2.68441e-13
2.9041e-12
2.2197e-11
8.64156e-11
2.6017e-10
5.63228e-10
7.44372e-10
5.4358e-10
2.1825e-10
7.60788e-11
5.12665e-12
1.56212e-13
0.00129861
0.00113082
0.000960303
0.000586041
1.13206e-10
1.1111e-10
3.42297e-06
0.000230753
0.000418616
0.000721925
0.00179567
0.00256556
0.00238394
8.74916e-09
0.0235357
0.139641
0.145274
0.145274
0.106918
0.00117525
0.0011479
0.00918629
2.33854e-09
1.21595e-10
2.18488e-10
8.83892e-11
8.95071e-11
8.83889e-11
8.94352e-11
8.83889e-11
9.05174e-11
7.69652e-11
7.69606e-11
0.00124463
0.00936278
0.0426756
0.125415
0.0854948
0.00119304
0.0253973
0.13537
0.00809454
1.19521e-10
2.51404e-10
3.02252e-10
2.41747e-10
1.61521e-10
1.25095e-10
1.09491e-10
1.15039e-10
1.35349e-10
1.64146e-10
1.87193e-08
2.23827e-08
1.92416e-08
0.0135999
0.0237478
0.108352
0.475338
0.608238
0.128609
4.33493e-10
3.0414e-10
2.09336e-10
1.56502e-10
1.10107e-10
8.30861e-11
7.36512e-11
7.35954e-11
8.04062e-11
1.03103e-10
7.32944e-11
7.3905e-11
4.71086e-11
1.16672e-10
3.0506e-11
0.152456
0.978497
0.911051
0.401853
1.32058e-09
4.1493e-10
1.94376e-10
1.2155e-10
7.70018e-11
5.42466e-11
5.20017e-11
5.11533e-11
6.00185e-11
6.46805e-11
7.41382e-11
9.21545e-11
1.61257e-10
2.96892e-10
8.41363e-10
0.148062
0.998375
0.997889
0.582871
0.00657012
1.39356e-10
1.69405e-10
1.2133e-10
8.46571e-11
6.90878e-11
8.92013e-11
9.20738e-11
1.38923e-10
1.18981e-10
9.51813e-11
8.80208e-11
1.04919e-10
2.32027e-10
2.30766e-09
0.147314
0.997703
1
0.571515
0.00611248
1.1662e-10
1.49968e-10
1.50335e-10
1.27843e-10
1.11938e-10
2.11873e-10
2.33803e-10
3.55595e-10
3.91709e-10
2.70419e-10
1.46476e-10
1.04833e-10
1.90277e-10
3.28848e-09
0.691187
1
1
0.440602
0.00156753
1.39356e-10
1.72615e-10
2.14008e-10
1.9104e-10
1.90279e-10
4.61652e-10
5.62374e-10
6.99283e-10
3.92934e-10
1.78782e-09
3.52928e-10
8.29055e-11
1.50056e-10
3.24618e-09
6.66808e-14
7.94887e-14
9.44762e-14
1.11157e-13
1.42617e-13
1.99812e-13
2.96351e-13
4.78392e-13
1.14694e-12
2.02068e-12
3.01847e-12
3.64847e-12
8.236e-12
2.3046e-11
4.83753e-11
1.42167e-10
6.32535e-10
1.48344e-09
1.23409e-09
8.16658e-10
2.22699e-10
4.33026e-11
1.59864e-12
1.80272e-12
2.12788e-12
2.34075e-12
2.53253e-12
2.89932e-12
3.5423e-12
4.4792e-12
6.16254e-12
7.96703e-12
1.05329e-11
1.22309e-11
1.17448e-11
4.1039e-11
3.50293e-11
3.09547e-11
5.43844e-11
5.26719e-10
3.07687e-09
3.15347e-09
1.67341e-09
8.42345e-10
2.02481e-10
2.56206e-11
7.52689e-12
8.75928e-12
9.26112e-12
9.74312e-12
1.0637e-11
1.23642e-11
1.47391e-11
1.80758e-11
2.33929e-11
3.22405e-11
3.66985e-11
2.79472e-11
4.29853e-10
1.43527e-10
9.26146e-11
1.10622e-10
3.95985e-10
9.50899e-09
1.00683e-08
6.80705e-09
3.19312e-09
3.28397e-10
4.01496e-11
2.7948e-11
3.13287e-11
3.1442e-11
3.33878e-11
3.4265e-11
3.84394e-11
4.26375e-11
5.60075e-11
7.12126e-11
9.05293e-11
9.22231e-11
4.4825e-11
2.00284e-09
9.16547e-09
5.5239e-10
4.23732e-10
1.39048e-08
6.81712e-08
5.32264e-08
1.06637e-08
1.04518e-09
9.67362e-11
2.2316e-11
8.20356e-11
8.88298e-11
9.19585e-11
9.18676e-11
9.61987e-11
1.07026e-10
1.15838e-10
1.34088e-10
1.62465e-10
1.97808e-10
1.89063e-10
6.86003e-11
4.88809e-11
2.12199e-07
9.71745e-10
9.59247e-08
6.66508e-07
3.96751e-07
9.65502e-09
1.00827e-09
1.58516e-10
1.55639e-11
5.68172e-12
2.02052e-10
2.19464e-10
2.22411e-10
2.2405e-10
2.26821e-10
2.339e-10
2.41103e-10
2.62251e-10
2.93945e-10
3.32141e-10
2.94078e-10
2.49183e-10
4.8294e-11
1.48537e-07
4.24839e-06
6.81787e-06
2.80263e-06
5.29712e-14
6.30079e-12
7.88054e-14
4.18351e-12
1.20417e-12
3.30885e-13
4.21041e-10
4.27207e-10
4.32739e-10
4.37311e-10
4.28654e-10
4.11803e-10
3.96895e-10
4.00256e-10
4.0603e-10
4.11887e-10
3.88224e-10
1.02839e-09
1.51229e-10
7.74507e-11
1.71907e-05
1.40667e-05
1.68948e-06
5.44299e-14
2.73602e-14
2.73577e-14
6.50172e-14
5.70233e-14
5.56616e-14
6.54766e-10
6.59435e-10
6.89233e-10
6.84839e-10
6.16836e-10
6.16241e-10
5.5623e-10
5.01852e-10
4.43351e-10
4.28828e-10
5.08799e-10
3.48191e-08
9.56956e-10
0.000344891
4.35922e-05
4.19154e-06
3.80877e-07
2.81022e-10
5.11339e-12
9.84617e-13
8.41429e-13
1.17276e-12
2.47998e-12
8.22616e-10
8.03828e-10
8.14174e-10
7.50476e-10
6.17482e-10
2.40607e-09
1.79765e-09
1.2027e-09
8.0618e-10
5.64135e-10
5.05392e-10
0.000978259
0.0236826
0.0019426
1.63317e-07
1.31927e-06
1.58925e-08
5.58421e-10
1.20646e-10
5.48629e-11
4.52156e-11
4.70495e-11
5.34088e-11
7.99091e-10
5.8227e-10
5.94043e-10
5.44785e-10
5.95176e-10
0.00222804
0.0147173
0.0444447
0.0959284
0.166452
0.24352
0.40811
0.225178
0.000430438
4.71945e-10
1.98864e-10
2.425e-10
5.27364e-10
4.72897e-10
4.00046e-10
3.32949e-10
2.28135e-09
3.06327e-09
0.228755
0.241746
0.270686
0.316673
0.384494
0.489631
0.603294
0.715404
0.814237
0.889452
0.930355
0.912254
0.355896
0.134182
0.031217
0.00418258
2.56577e-09
3.37452e-09
2.66055e-09
9.90983e-10
1.50534e-09
0.0029934
0.0218917
0.939894
0.94703
0.961633
0.981041
1
1
1
1
0.999988
0.999487
0.988007
0.919537
0.950634
0.860721
0.678736
0.523558
0.396622
0.328687
0.312457
0.330088
0.394735
0.492897
0.646443
1
1
1
1
1
1
1
1
1
0.995465
0.985011
0.992652
0.999919
0.99967
0.99991
0.999991
0.999998
0.9965
0.992435
1
1
1
1
1
1
1
1
1
1
1
1
0.999872
0.997402
0.997305
0.999995
1
0.999947
0.999987
0.999992
0.999998
0.999999
1
1
1
1
1
1
1
1
1
1
1
1
1
0.999957
0.999812
1
0.999995
1
1
1
1
1
1
1
1
1
1
1
1
1
1
1
1
1
1
0.999999
0.999997
1
1
0.999999
1
1
1
1
1
1
1
0.999987
0.99987
0.999743
0.999668
1
1
1
1
1
1
1
1
1
1
1
1
1
1
1
1
1
1
1
0.999929
0.999579
0.999334
0.999335
1
1
1
1
1
1
1
1
1
1
1
1
1
1
1
1
1
1
1
0.999906
0.999773
0.999812
0.999918
1
1
1
1
1
1
1
1
1
1
1
1
1
1
1
1
1
0.999999
0.999998
1
1
1
1
1
1
1
1
1
1
1
1
1
1
1
1
1
1
1
1
1
1
1
1
1
1
1
1
1
1
1
1
1
1
1
1
1
1
1
1
1
1
1
1
1
1
1
1
1
1
1
1
1
1
1
1
1
1
1
1
1
1
1
1
1
1
1
1
1
1
1
1
1
1
1
1
1
1
1
1
1
1
1
1
1
1
1
1
1
1
1
1
1
1
1
1
1
1
1
1
1
1
1
1
1
1
1
1
1
1
1
1
1
1
1
1
1
1
1
1
1
1
1
1
1
1
1
1
1
1
1
1
1
1
1
1
1
1
1
1
1
1
1
1
1
1
1
1
1
1
1
1
1
1
1
1
1
1
1
1
1
1
1
1
1
1
1
1
1
1
1
1
1
1
1
1
1
1
1
1
1
1
1
1
1
1
1
1
1
1
1
1
1
1
1
1
1
1
1
1
1
1
1
1
1
1
1
1
1
1
1
1
1
1
1
1
1
1
1
1
1
1
1
1
1
1
1
1
1
1
1
1
1
1
1
1
1
1
1
1
1
1
1
1
1
1
1
1
1
1
1
1
1
1
1
1
1
1
1
1
1
1
1
1
1
1
1
1
1
1
1
1
1
1
1
1
1
1
1
1
1
1
1
1
1
1
1
1
1
1
1
1
1
1
1
1
1
1
1
1
1
1
1
1
1
1
1
1
1
1
1
1
1
1
1
1
1
1
1
1
1
1
1
1
1
1
1
1
1
1
1
1
1
1
1
1
1
1
1
1
1
1
1
1
1
1
1
1
1
1
1
1
1
1
1
1
1
1
1
1
1
1
1
1
1
1
1
1
1
1
1
1
1
1
1
1
1
1
1
1
1
1
1
1
1
1
1
1
1
1
1
1
1
1
1
1
1
1
1
1
1
1
1
1
1
1
1
1
1
1
1
1
1
1
1
1
1
1
1
1
1
1
1
1
1
1
1
1
1
1
1
1
1
1
1
1
1
1
1
1
1
1
1
1
1
1
1
1
1
1
1
1
1
1
1
1
1
1
1
1
1
1
1
1
1
1
1
1
1
1
1
1
1
1
1
1
1
1
1
1
1
1
1
1
1
1
1
1
1
1
1
1
1
1
1
1
1
1
1
1
1
1
1
1
1
1
1
1
1
1
1
1
1
1
1
1
1
1
1
1
1
1
1
1
1
1
1
1
1
1
1
1
1
1.10161e-17
0.694982
0.990757
1
1.13253e-17
0.118778
0.369455
0.886128
3.45452e-14
0.00664694
0.0362279
0.140877
2.84245e-12
3.02435e-15
2.43706e-17
3.07706e-18
2.52884e-12
8.81375e-13
2.27122e-13
2.57276e-14
3.60669e-13
2.46337e-13
1.17639e-13
3.78522e-14
6.2506e-14
8.33463e-14
1.12766e-13
1.50162e-13
4.20988e-12
5.74972e-12
8.77335e-12
1.36382e-11
8.14915e-11
9.02434e-11
1.50403e-10
2.03691e-10
8.35591e-11
4.62553e-11
9.2602e-11
4.63488e-11
0.0540115
0.0950788
0.124758
0.180373
0.798153
0.913104
0.997672
0.999999
1
1
1
0.999726
1
1
0.99941
0.99913
1
0.999731
0.999071
0.999955
0.999577
0.999366
0.999827
1
0.9997
0.999999
1
1
0.999972
1
1
1
1
1
1
1
1
1
1
1
1
1
1
1
1
1
1
1
1
1
1
1
1
1
1
1
1
1
1
1
1
1
1
1
1
1
1
1
1
1
1
1
1
1
1
1
1
1
1
1
1
1
1
1
1
1
1
1
1
1
1
1
1
1
1
1
1
1
1
1
1
1
1
1
1
1
1
1
1
1
1
1
1
1
1
1
1
1
1
1
1
1
1
1
1
1
1
1
1
1
0.999975
0.258431
1.13615e-10
1.47671e-10
2.23221e-10
2.99599e-10
2.38765e-10
2.82707e-10
2.9081e-10
2.992e-10
3.07642e-10
0.012676
5.88467e-11
5.7875e-11
5.88257e-11
5.7875e-11
1.79343e-09
1
1
0.74629
0.0508708
1.06392e-10
3.01524e-10
4.16794e-10
4.47862e-10
2.4345e-10
2.48471e-10
0.0330632
0.174954
0.331147
0.480258
0.649008
0.488865
0.112083
7.8638e-09
1.18434e-09
0.603552
0.742136
0.290318
0.000279978
1.12302e-10
5.66643e-10
6.04947e-10
4.616e-10
0.00182244
0.250186
0.623867
0.951031
1
1
1
0.998166
0.685325
0.024911
1.75672e-09
0.116089
0.0906333
0.0132135
5.11166e-11
1.11289e-10
4.86265e-10
5.16718e-10
0.0226477
0.46666
0.968178
1
1
1
1
1
1
0.999695
0.152196
0.000461545
3.67532e-15
3.85041e-15
3.67516e-15
5.13323e-11
2.13046e-10
2.26586e-10
0.0262295
0.58417
1
1
1
1
1
1
1
1
1
0.702682
0.032309
1.73836e-14
1.51106e-12
1.49389e-11
2.40796e-10
2.26494e-10
4.32006e-09
0.569297
1
1
1
1
1
1
1
1
1
1
0.998028
0.0772991
7.58321e-13
2.34828e-11
1.40359e-10
1.45927e-10
5.77005e-09
0.472879
0.998503
1
1
1
1
1
1
1
1
1
1
1
0.0775147
8.38761e-11
7.97823e-11
2.51877e-10
8.03363e-09
0.420232
0.988256
1
1
1
1
1
1
1
1
1
1
1
0.998719
0.064331
1.15832e-09
1.9802e-09
0.0408244
0.488569
0.995105
1
1
1
1
1
1
1
1
1
1
1
1
0.992749
0.0640251
0.00675267
0.157278
0.739091
1
1
1
1
1
1
1
1
1
1
1
1
1
1
0.990528
0.223178
0.571125
0.998107
1
1
1
1
1
1
1
1
1
1
1
1
1
1
0.999987
0.995731
0.914186
0.999999
0.999995
0.999997
1
1
1
1
1
1
1
1
1
1
1
1
0.999999
0.999984
0.999911
1
0.999682
0.999882
1
1
1
1
1
1
1
1
1
1
1
1
1
1
1
1
1
0.999676
0.999999
1
1
1
1
1
1
1
1
1
1
1
1
1
1
1
1
1
0.999988
1
1
1
1
1
1
1
1
1
1
1
1
1
1
1
1
1
1
1
1
1
1
1
1
1
1
1
1
1
1
1
1
1
1
1
1
1
1
1
1
1
1
1
1
1
1
1
1
1
1
1
1
1
1
1
1
1
1
1
1
1
1
1
1
1
1
1
1
1
1
1
1
1
1
1
1
1
1
1
1
1
1
1
1
1
1
1
1
1
1
1
1
1
1
1
1
1
1
1
1
1
1
1
1
1
1
1
1
1
1
1
1
1
1
1
1
1
1
1
1
1
1
1
1
1
1
1
1
1
1
1
1
1
1
1
1
1
1
1
1
1
1
1
1
1
1
1
1
1
1
1
1
1
1
1
1
1
1
1
1
1
1
1
1
1
1
1
1
1
1
1
1
1
1
1
1
1
1
1
1
1
1
1
1
1
1
1
1
1
1
1
1
1
1
1
1
1
1
1
1
1
1
1
1
1
1
1
1
1
1
1
1
1
1
1
1
1
1
1
1
1
1
1
1
1
1
1
1
1
1
1
1
1
1
1
1
1
1
1
1
1
1
1
1
1
1
1
1
1
1
1
1
1
1
1
1
1
1
1
1
1
1
1
1
1
1
1
1
1
1
1
1
1
1
1
1
1
1
1
1
1
1
1
1
1
1
1
1
1
1
1
1
1
1
1
1
1
1
1
1
1
1
1
1
1
1
1
1
1
1
1
1
1
1
1
1
1
1
1
1
1
1
1
1
1
1
1
1
1
1
1
1
1
1
1
1
1
1
1
1
1
1
1
1
1
1
1
1
1
1
1
1
1
1
1
1
1
1
1
1
1
1
1
1
1
1
1
1
1
1
1
1
1
1
1
1
1
1
1
1
1
1
1
1
1
1
1
1
1
1
1
1
1
1
1
1
1
1
1
1
1
1
1
1
1
1
1
1
1
1
1
1
1
1
1
1
1
1
1
1
1
1
1
1
1
1
1
1
1
1
1
1
1
1
1
1
1
1
1
1
1
1
1
1
1
1
1
1
1
1
1
1
1
1
1
1
1
1
1
1
1
1
1
1
1
1
1
1
1
1
1
1
1
1
1
1
1
1
1
1
1
1
1
1
1
1
1
1
1
1
1
1
1
1
1
1
1
1
1
1
1
1
1
1
1
1
1
1
1
1
1
1
1
1
1
1
1
1
1
1
1
1
1
1
1
1
1
1
1
1
1
)
;

boundaryField
{
    leftWall
    {
        type            alphaContactAngle;
        thetaProperties 
6
(
(galistan air) 90 0 0 0
(oil galistan) 90 0 0 0
(water oil) 90 0 0 0
(water air) 90 0 0 0
(oil air) 90 0 0 0
(water galistan) 90 0 0 0
);
        value           nonuniform List<scalar> 
50
(
3.80889e-25
2.36376e-23
5.47417e-22
9.35879e-21
8.02468e-20
3.36581e-19
4.97614e-19
2.67954e-23
6.66808e-14
1.80272e-12
7.52689e-12
2.7948e-11
8.20356e-11
2.02052e-10
4.21041e-10
6.54766e-10
8.22616e-10
7.99091e-10
0.228755
0.939894
1
1
1
1
1
1
1
1
1
1
1
1
1
1
1
1
1
1
1
1
1
1
1
1
1
1
1
1
1
1
)
;
    }
    rightWall
    {
        type            alphaContactAngle;
        thetaProperties 
6
(
(galistan air) 90 0 0 0
(oil galistan) 90 0 0 0
(water oil) 90 0 0 0
(water air) 90 0 0 0
(oil air) 90 0 0 0
(water galistan) 90 0 0 0
);
        value           nonuniform List<scalar> 
50
(
0.106918
0.0854948
0.0237478
3.0506e-11
8.41363e-10
2.30766e-09
3.28848e-09
3.24618e-09
1.79343e-09
1.18434e-09
1.75672e-09
0.000461545
0.032309
0.0772991
0.0775147
0.064331
0.0640251
0.223178
0.914186
1
1
1
1
1
1
1
1
1
1
1
1
1
1
1
1
1
1
1
1
1
1
1
1
1
1
1
1
1
1
1
)
;
    }
    lowerWall
    {
        type            alphaContactAngle;
        thetaProperties 
6
(
(galistan air) 90 0 0 0
(oil galistan) 90 0 0 0
(water oil) 90 0 0 0
(water air) 90 0 0 0
(oil air) 90 0 0 0
(water galistan) 90 0 0 0
);
        value           nonuniform List<scalar> 
62
(
3.80889e-25
3.82092e-25
5.00789e-25
6.3606e-25
9.92961e-25
1.48055e-24
1.50858e-24
1.29391e-24
7.02488e-25
3.25012e-25
2.37655e-25
5.44694e-19
1.93433e-18
3.79875e-18
1.2352e-18
3.00311e-19
1.94278e-19
9.48578e-20
3.82369e-20
1.60578e-20
6.78998e-21
7.2096e-22
1.2734e-22
1.2734e-22
2.31397e-21
2.33758e-19
1.55243e-17
5.6111e-17
6.29526e-15
1.71442e-14
1.56212e-13
1.10161e-17
0.694982
0.990757
1
0.00129861
0.00117525
0.00119304
0.108352
0.152456
0.148062
0.147314
0.691187
0.00129861
0.00113082
0.000960303
0.000586041
1.13206e-10
1.1111e-10
3.42297e-06
0.000230753
0.000418616
0.000721925
0.00179567
0.00256556
0.00238394
8.74916e-09
0.0235357
0.139641
0.145274
0.145274
0.106918
)
;
    }
    atmosphere
    {
        type            inletOutlet;
        inletValue      uniform 1;
        value           nonuniform List<scalar> 
46
(
1
1
1
1
1
1
1
1
1
1
1
1
1
1
1
1
1
1
1
1
1
1
1
1
1
1
1
1
1
1
1
1
1
1
1
1
1
1
1
1
1
1
1
1
1
1
)
;
    }
    defaultFaces
    {
        type            empty;
    }
}


// ************************************************************************* //
