/*--------------------------------*- C++ -*----------------------------------*\
| =========                 |                                                 |
| \\      /  F ield         | OpenFOAM: The Open Source CFD Toolbox           |
|  \\    /   O peration     | Version:  2312                                  |
|   \\  /    A nd           | Website:  www.openfoam.com                      |
|    \\/     M anipulation  |                                                 |
\*---------------------------------------------------------------------------*/
FoamFile
{
    version     2.0;
    format      ascii;
    arch        "LSB;label=32;scalar=64";
    class       volScalarField;
    location    "0.25";
    object      p;
}
// * * * * * * * * * * * * * * * * * * * * * * * * * * * * * * * * * * * * * //

dimensions      [1 -1 -2 0 0 0 0];

internalField   nonuniform List<scalar> 
2268
(
9332.71
9318.24
9268.35
9188.43
9079.6
8941.89
8775.85
8582.68
8364.41
8123.84
7864.68
7592.39
7316.66
7052.86
6825.4
6671.4
6646.67
6830.83
7340.75
8289.34
9672.4
11228.7
12914.4
8530.18
8515.54
8465.21
8384.8
8275.26
8136.61
7969.36
7774.64
7554.5
7311.77
7050.02
6774.28
6494.32
6225.49
5991.99
5829.69
5792.75
5956.12
6439.54
7374.05
8776.18
10363.7
12103.4
7725.28
7710.43
7659.53
7578.43
7467.87
7327.82
7158.7
6961.48
6738.33
6492.13
6226.13
5944.37
5656.91
5378.97
5134.05
4955.15
4893.75
5007.28
5427.29
6318.65
7728.39
9330.79
11061.2
6917.41
6902.15
6850.38
6768.16
6656.03
6513.86
6341.9
6140.79
5912.99
5661.49
5389.11
5097.95
4798.96
4507.47
4245.42
4041.05
3945.79
3989.96
4305.07
5119.93
6526.6
8146.91
9845.07
6107.34
6091.49
6038.61
5954.95
5840.79
5695.94
5520.31
5313.98
5080.02
4821.67
4541.21
4236.89
3921.96
3612.43
3327.26
3086.23
2949
2903.04
3022.77
3698.47
5120.39
6812.18
8474.47
5295.54
5279.07
5225.01
5139.68
5023.19
4875.21
4695.19
4481.96
4239.88
3972.68
3682.03
3358.93
3021.77
2689.27
2400.09
2165.75
2079.17
2044.43
2161.82
2461.09
3549.32
5324.95
6945.11
4478.16
4461.15
4405.83
4318.57
4199.33
4047.67
3862.33
3639.63
3387.08
3109.2
2807.66
2473.83
2163.52
1925.7
1803.99
1756.39
1777.3
1845.19
1941.91
2081.66
2452.18
3858.87
5293.58
3647.24
3629.07
3571.83
3481.82
3359.09
3203.3
3012.58
2781.34
2533.76
2281.88
2037.11
1805.59
1674.38
1622.53
1624.82
1659.33
1697.88
1759.14
1846.36
1949.51
2056.16
2676.04
3563.86
629.236
-49.0115
-215.365
-28.6337
335.93
585.622
736.694
843.765
911.784
943.303
954.333
967.867
1001.63
1069.8
1181.34
1330.58
1499.18
1647.87
1785.88
506.237
-174.485
-309.328
-114.062
256.433
511.905
675.468
792.6
867.611
901.317
914.311
928.778
962.822
1030.74
1141.82
1293.46
1469.14
1626.85
1774.04
234.269
-376.408
-424.775
-218.035
163.216
429.806
608.181
737.254
816.902
853.476
868.363
883.237
916.905
984.162
1093.53
1246.17
1429.02
1597.96
1758.12
-128.791
-572.113
-544.597
-344.438
55.8954
340.539
534.584
674.7
757.978
797.312
813.485
827.882
860.059
925.272
1033.14
1187.21
1377.78
1558.89
1736.53
-420.525
-602.199
-599.217
-478.558
-53.3715
252.378
459.205
606.294
693.135
734.555
750.938
763.556
792.952
855.227
960.145
1115.38
1314.84
1509.04
1706.08
-580.443
-606.012
-604.018
-591.098
-147.236
169.862
384.362
534.754
624.216
666.416
681.364
690.259
714.906
772.026
871.399
1027.04
1236.77
1445.44
1662.93
-569.655
-606.252
-605.091
-610.229
-221.501
92.9238
308.997
460.013
550.473
592.04
604.059
607.488
625.706
675.784
764.463
918.568
1139.4
1363.78
1601.84
-600.319
-606.129
-605.111
-604.829
-280.958
17.9804
229.65
377.83
466.947
506.331
514.03
510.663
521.552
567.439
637.507
788.807
1021.3
1260.81
1515.94
2413.72
2397.86
2351.1
2280.4
2189.23
2081.43
1959.74
1840.2
1726.38
1626.33
1549.45
1502.58
1492.49
1499.07
1509.4
1530.85
1561.37
1606.24
1670.21
1745.79
1769.72
1731.78
537.311
1414.79
1409.18
1392.07
1368.22
1341.34
1315.95
1296.46
1290.94
1292.76
1299.42
1309.99
1324.37
1327.95
1329.11
1330.54
1334.96
1345.55
1365.48
1391.05
1414.03
1400
1180.05
875.345
1128.82
1130.4
1131.87
1134.28
1137.74
1142.32
1147.68
1148.2
1148.96
1151.3
1154.96
1158.57
1157.15
1149.91
1138.52
1125.33
1112.52
1101.17
1088.97
1062
1004.01
879.066
679.878
996.206
997.332
997.97
998.965
1000.3
1001.86
1003.18
1002.86
1001.86
1000.58
998.6
994.338
984.699
966.972
941.816
911.063
876.052
837.246
792.259
735.724
681.115
617.237
497.3
861.759
862.38
862.138
861.712
861.041
860.008
858.354
855.654
851.966
847.111
840.337
829.755
812.198
783.741
745.633
700.077
648.637
594.174
544.834
517.16
503.124
480.582
405.804
725.447
725.544
724.395
722.555
719.965
716.572
712.269
706.903
700.393
692.337
681.811
666.521
642.479
604.28
556.045
502.136
451.009
417.587
402.641
402.846
410.329
406.562
364.723
587.881
587.456
585.401
582.181
577.757
572.16
565.385
557.463
548.438
537.942
525.217
507.33
478.496
432.359
381.899
342.844
323.218
317.389
322.865
334.512
348.855
354.395
336.204
449.585
448.653
445.703
441.137
434.923
427.171
417.983
407.657
396.653
385.143
373.144
355.85
325.284
282.066
254.848
244.337
246.131
253.706
265.476
280.608
295.135
301.631
292.168
310.417
308.992
305.111
299.126
290.965
280.983
269.05
255.848
242.528
230.695
222.099
209.227
195.515
177.124
171.801
176.564
186.987
200.019
213.939
227.043
237.158
239.796
230.608
171.22
169.32
164.53
157.161
147.308
134.847
120.726
105.793
91.5083
80.1858
75.8215
75.9903
99.2569
95.8607
104.199
115.38
129.276
142.275
154.183
163.964
169.463
168.344
158.254
53.2062
51.7242
48.2411
43.1731
37.0148
30.4056
23.2408
16.1982
10.0247
5.5714
7.81445
17.7027
24.9694
32.5598
43.1015
54.1876
66.3074
76.4539
83.7519
88.0981
88.4628
82.3087
68.5142
1.96428
1.52222
0.597412
-0.62143
-1.58314
-1.65902
-1.67959
-1.65243
-1.55941
-1.35823
-0.797674
1.36386
-0.032047
2.51117
8.08431
13.0212
17.0728
19.2348
20.1976
19.2203
16.9055
13.7675
8.89245
-1.87966
-1.87443
-1.86766
-1.84758
-1.80246
-1.80542
-1.80722
-1.79023
-1.76266
-1.67815
-1.40653
-1.69779
-1.89847
-1.89018
-2.0245
-2.05275
-2.06891
-2.05827
-2.02721
-2.25393
-2.37766
-2.41982
-2.42811
-1.9998
-1.99586
-1.98873
-1.97542
-1.95788
-1.95252
-1.95025
-1.94426
-1.94736
-1.99028
-2.04476
-2.0781
-2.07921
-2.11207
-2.16972
-2.20648
-2.24615
-2.30325
-2.37345
-2.43843
-2.51387
-2.56127
-2.58902
-2.12297
-2.12019
-2.11482
-2.10656
-2.09779
-2.09332
-2.09197
-2.09372
-2.10996
-2.17463
-2.20864
-2.22192
-2.23007
-2.2653
-2.31198
-2.35833
-2.41022
-2.47282
-2.54494
-2.61675
-2.68164
-2.72695
-2.74874
-2.24949
-2.24783
-2.2445
-2.23996
-2.23584
-2.2342
-2.2357
-2.24172
-2.25831
-2.29358
-2.32138
-2.34284
-2.36592
-2.40336
-2.44896
-2.49965
-2.55876
-2.62778
-2.70433
-2.77892
-2.84617
-2.89783
-2.91657
-2.37888
-2.37817
-2.37664
-2.37486
-2.3739
-2.37496
-2.37894
-2.38708
-2.40173
-2.42375
-2.44767
-2.47041
-2.4987
-2.53611
-2.58079
-2.63283
-2.69491
-2.76683
-2.84462
-2.91972
-2.98959
-3.03465
-3.0486
-2.51024
-2.51024
-2.51008
-2.51026
-2.51146
-2.51446
-2.51999
-2.52882
-2.54174
-2.55871
-2.57919
-2.60169
-2.62974
-2.66447
-2.70639
-2.7565
-2.81635
-2.88485
-2.95722
-3.02685
-3.0881
-3.12751
-3.13695
-2.64284
-2.64332
-2.6441
-2.64556
-2.64814
-2.65235
-2.65868
-2.66757
-2.67934
-2.69404
-2.7118
-2.73272
-2.75825
-2.78931
-2.82684
-2.87185
-2.92489
-2.98424
-3.04559
-3.10373
-3.15148
-3.18224
-3.19683
-2.77612
-2.7769
-2.77826
-2.7805
-2.78386
-2.7887
-2.7953
-2.80395
-2.81481
-2.82799
-2.84374
-2.86247
-2.88496
-2.91198
-2.94435
-2.98279
-3.02726
-3.07607
-3.12582
-3.17205
-3.21004
-3.23783
-3.25685
-2.90971
-2.91066
-2.91233
-2.91496
-2.9187
-2.92375
-2.9303
-2.93853
-2.94854
-2.96046
-2.97451
-2.99106
-3.01062
-3.03377
-3.0611
-3.09305
-3.12936
-3.16871
-3.20863
-3.24593
-3.27778
-3.30378
-3.32519
-3.04335
-3.04437
-3.04618
-3.04895
-3.05277
-3.05777
-3.06406
-3.07176
-3.08094
-3.09172
-3.10426
-3.11883
-3.1358
-3.15554
-3.17846
-3.20477
-3.23424
-3.26597
-3.29832
-3.32915
-3.3567
-3.38093
-3.40278
-3.17692
-3.17793
-3.17975
-3.1825
-3.18622
-3.19101
-3.19692
-3.20402
-3.21239
-3.2221
-3.23328
-3.24612
-3.26085
-3.27773
-3.297
-3.31876
-3.34285
-3.36867
-3.39522
-3.42114
-3.44527
-3.46759
-3.48859
-3.3103
-3.31128
-3.31303
-3.31566
-3.31918
-3.32365
-3.32911
-3.3356
-3.34317
-3.35189
-3.36184
-3.37315
-3.38598
-3.40049
-3.41683
-3.43503
-3.45498
-3.47631
-3.4984
-3.52042
-3.54162
-3.56188
-3.58134
-3.44349
-3.4444
-3.44604
-3.44849
-3.45175
-3.45585
-3.46083
-3.46671
-3.47352
-3.48131
-3.49014
-3.50011
-3.51131
-3.52386
-3.53782
-3.55323
-3.56999
-3.58788
-3.6065
-3.62536
-3.64393
-3.66202
-3.67955
-3.57645
-3.57729
-3.5788
-3.58104
-3.584
-3.58772
-3.59221
-3.59748
-3.60357
-3.6105
-3.61833
-3.6271
-3.63689
-3.64777
-3.65979
-3.67296
-3.6872
-3.70238
-3.71825
-3.73446
-3.75068
-3.76669
-3.78226
-3.70922
-3.70997
-3.71133
-3.71334
-3.71601
-3.71934
-3.72334
-3.72804
-3.73344
-3.73958
-3.74647
-3.75418
-3.76273
-3.77218
-3.78256
-3.79387
-3.80607
-3.81905
-3.83265
-3.84663
-3.86076
-3.8748
-3.88853
-3.84177
-3.84245
-3.84366
-3.84545
-3.84781
-3.85076
-3.8543
-3.85845
-3.86321
-3.8686
-3.87465
-3.88138
-3.88883
-3.89703
-3.906
-3.91574
-3.92622
-3.93737
-3.94905
-3.96112
-3.97337
-3.98563
-3.99765
-3.97417
-3.97476
-3.97582
-3.97739
-3.97946
-3.98204
-3.98513
-3.98875
-3.99291
-3.99761
-4.00287
-4.00872
-4.01518
-4.02227
-4.03001
-4.03839
-4.04739
-4.05696
-4.067
-4.0774
-4.088
-4.09864
-4.10913
-4.1064
-4.10691
-4.10783
-4.10918
-4.11097
-4.1132
-4.11587
-4.119
-4.12258
-4.12664
-4.13118
-4.13621
-4.14177
-4.14787
-4.1545
-4.16169
-4.1694
-4.17759
-4.1862
-4.19513
-4.20426
-4.21346
-4.22256
-4.2385
-4.23893
-4.23971
-4.24085
-4.24237
-4.24427
-4.24654
-4.2492
-4.25225
-4.2557
-4.25957
-4.26386
-4.26859
-4.27377
-4.27942
-4.28554
-4.2921
-4.29908
-4.30643
-4.31406
-4.32188
-4.32978
-4.33765
-4.37047
-4.37083
-4.37148
-4.37243
-4.37369
-4.37527
-4.37716
-4.37938
-4.38193
-4.38481
-4.38805
-4.39165
-4.39562
-4.39997
-4.40472
-4.40987
-4.4154
-4.4213
-4.42752
-4.434
-4.44065
-4.4474
-4.45415
-4.50235
-4.50264
-4.50316
-4.50393
-4.50495
-4.50622
-4.50776
-4.50956
-4.51163
-4.51399
-4.51663
-4.51958
-4.52285
-4.52644
-4.53036
-4.53463
-4.53923
-4.54415
-4.54936
-4.55481
-4.56042
-4.56612
-4.57187
-4.63414
-4.63437
-4.63476
-4.63536
-4.63615
-4.63714
-4.63834
-4.63975
-4.64138
-4.64323
-4.64532
-4.64767
-4.65027
-4.65315
-4.65632
-4.65978
-4.66352
-4.66756
-4.67185
-4.67636
-4.68104
-4.68581
-4.69065
-4.76588
-4.76603
-4.76632
-4.76675
-4.76732
-4.76805
-4.76892
-4.76996
-4.77117
-4.77255
-4.77412
-4.7759
-4.77789
-4.7801
-4.78256
-4.78527
-4.78824
-4.79145
-4.79491
-4.79857
-4.8024
-4.80633
-4.81035
-4.89755
-4.89765
-4.89783
-4.89811
-4.89848
-4.89895
-4.89952
-4.90021
-4.90102
-4.90196
-4.90304
-4.90428
-4.90569
-4.90729
-4.90909
-4.9111
-4.91334
-4.9158
-4.91848
-4.92137
-4.92442
-4.9276
-4.93086
-5.0292
-5.02926
-5.02933
-5.02947
-5.02964
-5.02987
-5.03016
-5.03051
-5.03094
-5.03146
-5.03208
-5.03281
-5.03367
-5.03469
-5.03587
-5.03723
-5.03879
-5.04055
-5.04252
-5.04469
-5.04703
-5.04951
-5.05209
-5.16085
-5.16087
-5.16086
-5.16086
-5.16085
-5.16085
-5.16086
-5.1609
-5.16096
-5.16108
-5.16125
-5.16151
-5.16186
-5.16232
-5.16292
-5.16367
-5.16459
-5.16569
-5.16699
-5.16848
-5.17016
-5.172
-5.17395
-5.29253
-5.29252
-5.29242
-5.29229
-5.29211
-5.29189
-5.29164
-5.29137
-5.29109
-5.29082
-5.29057
-5.29037
-5.29023
-5.29017
-5.29022
-5.29039
-5.29071
-5.2912
-5.29186
-5.29272
-5.29378
-5.29501
-5.29638
-5.4242
-5.42419
-5.42401
-5.42377
-5.42342
-5.423
-5.42249
-5.42193
-5.42132
-5.42068
-5.42003
-5.41939
-5.41878
-5.41823
-5.41775
-5.41739
-5.41714
-5.41705
-5.41712
-5.41738
-5.41784
-5.41852
-5.41935
-5.55593
-5.55593
-5.55569
-5.55534
-5.55484
-5.5542
-5.55346
-5.55261
-5.55167
-5.55067
-5.54963
-5.54856
-5.5475
-5.54647
-5.5455
-5.54461
-5.54384
-5.5432
-5.54273
-5.54244
-5.54235
-5.54248
-5.54284
-5.68787
-5.688
-5.68771
-5.68725
-5.68658
-5.68574
-5.68474
-5.6836
-5.68234
-5.68098
-5.67954
-5.67804
-5.67653
-5.67501
-5.67353
-5.67213
-5.67082
-5.66965
-5.66864
-5.66783
-5.66723
-5.66686
-5.66668
-1904.12
-605.616
-604.32
-604.484
-98.0287
-743.533
-1122.88
-697.282
358.865
18.2466
-418.321
-730.619
383.232
290.541
95.7836
-45.7069
303.441
229.318
174.051
115.491
286.349
226.47
173.627
118.921
284.992
242.171
204.651
168.871
256.945
227.08
201.57
177.018
202.88
179.986
160.22
140.814
135.726
117.391
101.107
84.1839
49.5807
36.2028
26.8833
23.662
3.6667
-0.208967
-1.82145
-2.19914
-2.42196
-2.41392
-2.39211
-2.42437
-2.60208
-2.6066
-2.61155
-2.63188
-2.75269
-2.75583
-2.74235
-2.76331
-2.89598
-2.89148
-2.91972
-2.91005
-3.0448
-3.03368
-3.01915
-3.0115
-3.12831
-3.12055
-3.11176
-3.10512
-3.1959
-3.1937
-3.19113
-3.18818
-3.26328
-3.2658
-3.2675
-3.26785
-3.33606
-3.34157
-3.346
-3.34881
-3.41568
-3.42269
-3.42863
-3.43304
-3.50194
-3.50947
-3.51606
-3.52136
-3.59411
-3.60158
-3.60828
-3.61393
-3.69136
-3.69844
-3.70491
-3.71056
-3.79292
-3.79943
-3.80546
-3.81088
-3.89804
-3.9039
-3.9094
-3.91445
-4.00607
-4.01131
-4.01625
-4.02086
-4.11654
-4.12117
-4.12558
-4.12974
-4.22906
-4.23313
-4.23703
-4.24075
-4.34331
-4.34688
-4.35032
-4.35362
-4.45906
-4.46217
-4.46518
-4.46809
-4.5761
-4.57879
-4.58142
-4.58396
-4.69426
-4.69657
-4.69883
-4.70104
-4.81339
-4.81535
-4.81729
-4.81918
-4.93337
-4.93502
-4.93664
-4.93826
-5.05411
-5.05544
-5.05679
-5.05814
-5.17551
-5.17657
-5.17765
-5.17874
-5.29752
-5.2983
-5.29913
-5.29999
-5.42009
-5.42063
-5.4212
-5.42182
-5.54323
-5.54352
-5.54386
-5.54424
-5.66671
-5.66677
-5.66686
-5.66699
-604.542
-605.908
-605.839
-603.298
-351.992
-88.2634
112.054
251.861
334.284
365.126
359.47
337.821
330.859
347.545
382.121
519.308
785.953
1074.45
1365.91
-604.109
-605.448
-608.11
-615.355
-410.257
-179.782
1.21272
122.502
183.895
184.242
140.683
69.9608
27.0099
14.2998
9.70723
47.855
315.838
698.919
1058.94
-896.775
-765.211
-812.201
-684.811
-441.008
-225.447
-68.7845
28.8019
63.588
38.3779
11.5034
-0.84311
-2.61652
-2.95535
-2.57945
0.665163
24.7814
286.778
644.57
-252.569
-410.322
-460.526
-475.638
-350.756
-194.351
-78.9152
-7.90925
8.86085
-1.91903
-3.27579
-3.62828
-3.72036
-3.58049
-3.41984
-3.24823
-0.253651
22.0736
307.856
13.4894
-44.9396
-130.172
-186.248
-194.507
-122.316
-46.6682
-2.69281
-3.54687
-3.55151
-3.84208
-4.04235
-4.18822
-4.22447
-4.12919
-4.00188
-3.78388
-1.01094
126.425
44.1451
1.49901
-20.2831
-70.3037
-92.6309
-57.9323
-7.8141
-3.79246
-3.41133
-3.65272
-3.97236
-4.26628
-4.5223
-4.72143
-4.71913
-4.67826
-4.85383
-5.74458
6.14519
117.285
68.0782
24.1742
-17.8836
-36.0149
-9.51642
-3.64643
-3.10031
-3.34472
-3.64748
-3.95918
-4.28619
-4.59853
-4.88311
-4.9172
-5.32579
-4.95896
-6.04458
-2.61095
136.666
86.0906
36.9173
0.42076
-3.55223
-2.9468
-2.72906
-2.98012
-3.26847
-3.5592
-3.884
-4.20509
-4.52083
-4.8218
-4.98591
-5.64626
-4.79751
-6.66676
-2.31684
106.22
61.64
20.5186
4.11372
-2.64553
-2.48285
-2.67101
-2.92529
-3.18495
-3.47717
-3.77473
-4.08039
-4.37948
-4.67288
-4.95141
-5.5339
-4.78029
-6.78521
8.12047
53.0546
21.2934
5.02793
-2.24538
-2.30892
-2.48203
-2.67136
-2.89537
-3.14709
-3.39873
-3.65305
-3.90733
-4.17331
-4.43105
-4.70602
-5.07617
-4.70544
-6.0532
15.0674
10.8899
-1.76168
-2.48092
-2.35879
-2.45034
-2.55854
-2.72403
-2.91946
-3.12197
-3.3276
-3.53296
-3.73562
-3.93481
-4.11942
-4.29255
-4.4474
-4.17732
-4.42874
2.25737
-2.31886
-2.35197
-2.5106
-2.50054
-2.56517
-2.6781
-2.8023
-2.95028
-3.10792
-3.26655
-3.42101
-3.56622
-3.69433
-3.79167
-3.84091
-3.81855
-3.54163
-2.96337
-1.29937
-2.52123
-2.52685
-2.58489
-2.64711
-2.68597
-2.76613
-2.8671
-2.98124
-3.10067
-3.21807
-3.32662
-3.41869
-3.4837
-3.50653
-3.46318
-3.31679
-3.02775
-2.51925
-1.60995
-2.64954
-2.66661
-2.69569
-2.73689
-2.78777
-2.85335
-2.93132
-3.01704
-3.10421
-3.18612
-3.25563
-3.30438
-3.32166
-3.29357
-3.20159
-3.01817
-2.72823
-2.40971
-1.86251
-2.79614
-2.78927
-2.80992
-2.84201
-2.88403
-2.93589
-2.99494
-3.05746
-3.11828
-3.17145
-3.21025
-3.22688
-3.21198
-3.1546
-3.04277
-2.86403
-2.6156
-2.35208
-2.18739
-2.90145
-2.90191
-2.91793
-2.94296
-2.97573
-3.01525
-3.05873
-3.10272
-3.14282
-3.1739
-3.19012
-3.18487
-3.15078
-3.08009
-2.96582
-2.80368
-2.59527
-2.36784
-2.22397
-3.00385
-3.0056
-3.01815
-3.03793
-3.06331
-3.09275
-3.12378
-3.15334
-3.17773
-3.19265
-3.1933
-3.17451
-3.13094
-3.05769
-2.9515
-2.81279
-2.6479
-2.47914
-2.38568
-3.09866
-3.10199
-3.11258
-3.12845
-3.14801
-3.16957
-3.191
-3.20971
-3.22263
-3.22632
-3.21702
-3.19094
-3.14454
-3.07517
-2.98217
-2.86862
-2.74313
-2.62403
-2.56226
-3.18583
-3.19236
-3.20263
-3.21597
-3.23118
-3.24682
-3.26113
-3.27197
-3.27691
-3.27326
-3.25825
-3.22925
-3.18416
-3.12193
-3.0435
-2.95304
-2.85908
-2.77566
-2.73326
-3.26981
-3.2794
-3.2901
-3.30194
-3.3141
-3.32549
-3.33471
-3.3401
-3.33978
-3.33174
-3.31404
-3.28498
-3.2435
-3.18961
-3.12502
-3.05402
-2.98396
-2.9251
-2.89575
-3.35413
-3.36585
-3.377
-3.38788
-3.39793
-3.40636
-3.4121
-3.41391
-3.41038
-3.4001
-3.38174
-3.35435
-3.31756
-3.27197
-3.21957
-3.16424
-3.11189
-3.0698
-3.04927
-3.44062
-3.45352
-3.46489
-3.47505
-3.48362
-3.49003
-3.4935
-3.49311
-3.48787
-3.47681
-3.45911
-3.43431
-3.4025
-3.36456
-3.32245
-3.27945
-3.24012
-3.20956
-3.19496
-3.53021
-3.5435
-3.55478
-3.56432
-3.57182
-3.57688
-3.57894
-3.57735
-3.57143
-3.56055
-3.54428
-3.52247
-3.49547
-3.46426
-3.43062
-3.39721
-3.36748
-3.34499
-3.33442
-3.62326
-3.63635
-3.64728
-3.65621
-3.66291
-3.66708
-3.66833
-3.66622
-3.6603
-3.6502
-3.63573
-3.61698
-3.59439
-3.56895
-3.54217
-3.5162
-3.49358
-3.47682
-3.46907
-3.71983
-3.73231
-3.74267
-3.75098
-3.75705
-3.76065
-3.7615
-3.7593
-3.7538
-3.7448
-3.73228
-3.71643
-3.69776
-3.67716
-3.65592
-3.63569
-3.6184
-3.60578
-3.60002
-3.81973
-3.83135
-3.84102
-3.84871
-3.85425
-3.85747
-3.85818
-3.85618
-3.85133
-3.84356
-3.83295
-3.81975
-3.80448
-3.78791
-3.7711
-3.75533
-3.74205
-3.73248
-3.72816
-3.92269
-3.93333
-3.94223
-3.94931
-3.9544
-3.95737
-3.95809
-3.95643
-3.95233
-3.94581
-3.93699
-3.92616
-3.91378
-3.90053
-3.88725
-3.87496
-3.86473
-3.85743
-3.85418
-4.02839
-4.03802
-4.04614
-4.05261
-4.05731
-4.06011
-4.06092
-4.05966
-4.05634
-4.05099
-4.0438
-4.03502
-4.02508
-4.01454
-4.00409
-3.99452
-3.98662
-3.98103
-3.97858
-4.13653
-4.14517
-4.15252
-4.15842
-4.16276
-4.16543
-4.16636
-4.16552
-4.16293
-4.15866
-4.15289
-4.14587
-4.13796
-4.12963
-4.12144
-4.114
-4.1079
-4.10362
-4.10176
-4.24682
-4.25453
-4.26113
-4.26649
-4.2705
-4.27306
-4.27412
-4.27367
-4.27175
-4.26843
-4.26389
-4.25834
-4.25211
-4.24558
-4.2392
-4.23342
-4.22873
-4.22545
-4.22404
-4.359
-4.36583
-4.37174
-4.3766
-4.38029
-4.38275
-4.38392
-4.38382
-4.38247
-4.37997
-4.37647
-4.37216
-4.36731
-4.36223
-4.35728
-4.35282
-4.34922
-4.34671
-4.34565
-4.47283
-4.47886
-4.48412
-4.4885
-4.4919
-4.49424
-4.49551
-4.49569
-4.49483
-4.49302
-4.49038
-4.48709
-4.48336
-4.47945
-4.47564
-4.47223
-4.46947
-4.46756
-4.46677
-4.58811
-4.59339
-4.59806
-4.60199
-4.6051
-4.60732
-4.60864
-4.60905
-4.6086
-4.60735
-4.60541
-4.60295
-4.60012
-4.59715
-4.59426
-4.59166
-4.58957
-4.58813
-4.58754
-4.70464
-4.70925
-4.71336
-4.71686
-4.71969
-4.72178
-4.72311
-4.72369
-4.72355
-4.72275
-4.72139
-4.71959
-4.71749
-4.71527
-4.71309
-4.71114
-4.70957
-4.70849
-4.70806
-4.82228
-4.82626
-4.82984
-4.83294
-4.83549
-4.83743
-4.83874
-4.83943
-4.83953
-4.83908
-4.83817
-4.83689
-4.83537
-4.83374
-4.83213
-4.83068
-4.82951
-4.82872
-4.82841
-4.94089
-4.94428
-4.94737
-4.95008
-4.95233
-4.9541
-4.95536
-4.95611
-4.95637
-4.95618
-4.95562
-4.95475
-4.95368
-4.95251
-4.95134
-4.95029
-4.94944
-4.94887
-4.94865
-5.06034
-5.06318
-5.0658
-5.06812
-5.07009
-5.07166
-5.07283
-5.07358
-5.07394
-5.07394
-5.07363
-5.07308
-5.07236
-5.07154
-5.07072
-5.06997
-5.06937
-5.06897
-5.06882
-5.18053
-5.18285
-5.18501
-5.18695
-5.18861
-5.18997
-5.19101
-5.19172
-5.19213
-5.19225
-5.19212
-5.1918
-5.19134
-5.1908
-5.19024
-5.18973
-5.18932
-5.18904
-5.18895
-5.30139
-5.3032
-5.30491
-5.30646
-5.30781
-5.30893
-5.3098
-5.31043
-5.31083
-5.31101
-5.311
-5.31085
-5.31058
-5.31024
-5.30989
-5.30956
-5.30929
-5.30912
-5.30906
-5.42285
-5.42415
-5.42541
-5.42656
-5.42757
-5.42842
-5.4291
-5.42961
-5.42996
-5.43015
-5.43021
-5.43016
-5.43003
-5.42985
-5.42965
-5.42946
-5.4293
-5.42921
-5.42918
-5.54487
-5.54566
-5.54643
-5.54716
-5.5478
-5.54836
-5.54881
-5.54917
-5.54942
-5.54959
-5.54967
-5.54969
-5.54965
-5.54959
-5.5495
-5.54942
-5.54935
-5.54931
-5.5493
-5.66724
-5.66753
-5.66784
-5.66814
-5.66841
-5.66865
-5.66885
-5.66902
-5.66916
-5.66927
-5.66935
-5.66941
-5.66944
-5.66946
-5.66947
-5.66947
-5.66947
-5.66947
-5.66947
)
;

boundaryField
{
    leftWall
    {
        type            calculated;
        value           nonuniform List<scalar> 
50
(
9332.71
8530.18
7725.28
6917.41
6107.34
5295.54
4478.16
3647.24
2413.72
1414.79
1128.82
996.206
861.759
725.447
587.881
449.585
310.417
171.22
53.2062
1.96428
-1.87966
-1.9998
-2.12297
-2.24949
-2.37888
-2.51024
-2.64284
-2.77612
-2.90971
-3.04335
-3.17692
-3.3103
-3.44349
-3.57645
-3.70922
-3.84177
-3.97417
-4.1064
-4.2385
-4.37047
-4.50235
-4.63414
-4.76588
-4.89755
-5.0292
-5.16085
-5.29253
-5.4242
-5.55593
-5.68787
)
;
    }
    rightWall
    {
        type            calculated;
        value           nonuniform List<scalar> 
50
(
1785.88
1774.04
1758.12
1736.53
1706.08
1662.93
1601.84
1515.94
1365.91
1058.94
644.57
307.856
126.425
6.14519
-2.61095
-2.31684
8.12047
15.0674
2.25737
-1.29937
-1.60995
-1.86251
-2.18739
-2.22397
-2.38568
-2.56226
-2.73326
-2.89575
-3.04927
-3.19496
-3.33442
-3.46907
-3.60002
-3.72816
-3.85418
-3.97858
-4.10176
-4.22404
-4.34565
-4.46677
-4.58754
-4.70806
-4.82841
-4.94865
-5.06882
-5.18895
-5.30906
-5.42918
-5.5493
-5.66947
)
;
    }
    lowerWall
    {
        type            calculated;
        value           nonuniform List<scalar> 
62
(
9730.86
9716.39
9666.5
9586.58
9477.75
9340.04
9174
8980.83
8762.56
8521.99
8262.83
7990.53
7714.81
7451.01
7223.55
7069.55
7044.82
7228.98
7738.9
8687.49
10070.6
11626.8
13311.8
12914.4
12103.4
11061.2
9845.07
8474.47
6945.11
5293.58
3563.86
-1089.69
-449.693
-603.969
-604.421
629.236
506.237
234.269
-128.791
-420.525
-580.443
-569.655
-600.319
643.931
-34.3134
-200.664
-13.9276
350.645
600.337
751.409
858.476
926.492
958.007
969.021
982.544
1016.31
1084.51
1195.71
1343.24
1511.76
1660.45
1799.02
)
;
    }
    atmosphere
    {
        type            calculated;
        value           nonuniform List<scalar> 
46
(
-5.75403
-5.75454
-5.75419
-5.75364
-5.75288
-5.75192
-5.75078
-5.74949
-5.74805
-5.74649
-5.74484
-5.74311
-5.74134
-5.73956
-5.73781
-5.73612
-5.73452
-5.73306
-5.73177
-5.73068
-5.72983
-5.72926
-5.72904
-5.72904
-5.72904
-5.72904
-5.72904
-5.72904
-5.72904
-5.72904
-5.72904
-5.72904
-5.72904
-5.72904
-5.72904
-5.72904
-5.72904
-5.72904
-5.72904
-5.72904
-5.72904
-5.72904
-5.72904
-5.72904
-5.72904
-5.72904
)
;
    }
    defaultFaces
    {
        type            empty;
    }
}


// ************************************************************************* //
