/*--------------------------------*- C++ -*----------------------------------*\
| =========                 |                                                 |
| \\      /  F ield         | OpenFOAM: The Open Source CFD Toolbox           |
|  \\    /   O peration     | Version:  2312                                  |
|   \\  /    A nd           | Website:  www.openfoam.com                      |
|    \\/     M anipulation  |                                                 |
\*---------------------------------------------------------------------------*/
FoamFile
{
    version     2.0;
    format      ascii;
    arch        "LSB;label=32;scalar=64";
    class       volScalarField;
    location    "0.25";
    object      p_rgh;
}
// * * * * * * * * * * * * * * * * * * * * * * * * * * * * * * * * * * * * * //

dimensions      [1 -1 -2 0 0 0 0];

internalField   nonuniform List<scalar> 
2268
(
9730.86
9716.39
9666.5
9586.58
9477.75
9340.04
9174
8980.83
8762.56
8521.99
8262.83
7990.53
7714.81
7451.01
7223.55
7069.55
7044.82
7228.98
7738.9
8687.49
10070.6
11626.8
13311.8
9724.63
9709.99
9659.66
9579.25
9469.71
9331.06
9163.81
8969.08
8748.95
8506.22
8244.47
7968.73
7688.77
7419.94
7186.44
7024.14
6987.2
7150.57
7633.99
8568.5
9970.63
11558.1
13296.1
9716.03
9701.18
9650.28
9569.18
9458.62
9318.57
9149.45
8952.23
8729.08
8482.87
8216.87
7935.12
7647.66
7369.72
7124.8
6945.9
6884.5
6997.99
7417.96
8309.33
9719.14
11321.5
13051.8
9704.46
9689.2
9637.42
9555.21
9443.08
9300.91
9128.94
8927.84
8700.04
8448.54
8176.16
7885
7586.01
7294.52
7032.47
6828.1
6732.83
6776.59
7091.89
7906.97
9313.64
10934
12632.1
9690.69
9674.83
9621.96
9538.29
9424.14
9279.29
9103.66
8897.33
8663.36
8405.01
8124.56
7820.24
7505.31
7195.77
6910.61
6669.58
6524.04
6286.36
6450.05
7231.26
8669.88
10395.4
12031
9675.18
9658.72
9604.66
9519.33
9402.84
9254.86
9074.84
8861.61
8619.52
8352.33
8061.68
7738.57
7401.42
7068.89
6554.7
5721.66
4824.19
3631.62
3498.18
4692.51
7696.12
9703.59
11258
9654.11
9637.09
9581.78
9494.51
9375.28
9223.62
9038.28
8815.57
8563.03
8285.15
7983.61
7528.08
6663.89
5145.27
3511.29
2234.04
2159.88
2227.78
2324.62
2460.73
5201.64
8903.8
10354.6
9619.48
9601.31
9544.07
9454.07
9331.33
9175.55
8984.83
8735.44
8296.33
7579.72
6496.17
4907.41
3089.52
2063.97
2066.26
2100.77
2139.32
2200.59
2287.83
2390.27
2745.18
8221.07
9417.51
643.931
-34.3134
-200.664
-13.9276
350.645
600.337
751.409
858.476
926.492
958.007
969.021
982.544
1016.31
1084.51
1195.71
1343.24
1511.76
1660.45
1799.02
550.329
-130.391
-265.589
-69.9183
300.577
556.049
719.612
836.745
911.755
945.461
958.455
972.922
1006.97
1074.89
1185.91
1337.2
1511.41
1665.47
1814.42
307.755
-304.699
-361.141
-145.056
236.789
503.38
681.754
810.828
890.475
927.049
941.936
956.81
990.478
1057.74
1167.1
1319.74
1502.6
1670.54
1829.95
-36.9261
-517.973
-504.119
-254.656
158.898
443.542
637.587
777.703
860.981
900.315
916.488
930.885
963.061
1028.27
1136.14
1290.22
1480.78
1661.89
1839.53
-308.243
-599.092
-587.196
-399.238
79.0607
384.81
591.637
738.726
825.567
866.987
883.37
895.988
925.385
987.659
1092.58
1247.81
1447.28
1641.47
1838.52
-442.499
-605.426
-603.353
-523.39
13.564
331.723
546.224
696.615
786.078
828.277
843.225
852.121
876.767
933.887
1033.26
1188.9
1398.64
1607.31
1824.79
-406.488
-605.431
-604.708
-528.041
-31.3751
284.215
500.288
651.304
741.764
783.331
795.35
798.779
816.997
867.075
955.753
1109.86
1330.69
1555.07
1793.13
-531.853
-605.688
-604.669
-481.16
-60.5791
238.701
450.371
598.55
687.667
727.052
734.75
731.383
742.273
788.159
858.227
1009.53
1242.02
1481.53
1736.66
9121.24
9064.49
8908.94
8647.67
8263.5
7735.75
7039.9
5977.51
4875.08
3822.97
2913.38
2095.35
2025.96
2032.54
2042.87
2064.32
2094.84
2139.7
2203.93
2279.52
2259.52
5610.82
7611.21
3768.1
3679.79
3460.46
3141.11
2762.02
2369.13
1974.52
1949.61
1951.42
1958.08
1968.66
1983.03
1986.61
1987.77
1989.2
1993.62
2004.22
2024.14
2049.71
2073.99
2053.72
1708.19
7001.81
1912.68
1914.26
1915.73
1918.14
1921.59
1926.18
1931.54
1932.06
1932.82
1935.15
1938.82
1942.43
1941.01
1933.76
1922.37
1909.19
1896.38
1885.03
1872.83
1850.2
1776.06
1388.72
2211.81
1905.26
1906.38
1907.02
1908.02
1909.35
1910.91
1912.23
1911.91
1910.91
1909.63
1907.65
1903.39
1893.75
1876.02
1850.87
1820.11
1785.1
1746.3
1701.31
1576.86
1310.07
1087.99
954.183
1896
1896.63
1896.38
1895.96
1895.29
1894.25
1892.6
1889.9
1886.21
1881.36
1874.58
1864
1846.44
1817.99
1779.88
1734.32
1682.88
1616.28
1403.03
1098.83
1026.32
1001.05
923.186
1884.89
1884.98
1883.83
1881.99
1879.4
1876.01
1871.71
1866.34
1859.83
1851.78
1841.25
1825.96
1801.92
1763.72
1715.48
1661.57
1525.96
1210.68
993.292
982.565
990.291
986.982
944.817
1872.52
1872.09
1870.03
1866.82
1862.39
1856.79
1850.02
1842.1
1833.07
1822.58
1809.85
1791.96
1763.13
1716.99
1640.96
1379.84
1030.96
959.706
965.183
976.83
991.172
996.712
978.601
1859.41
1858.48
1855.53
1850.97
1844.75
1837
1827.81
1817.49
1806.48
1794.97
1782.97
1765.68
1735.1
1561.62
1176.76
949.249
951.045
958.62
970.391
985.522
1000.05
1006.55
997.082
1845.44
1844.02
1840.13
1834.15
1825.99
1816.01
1804.07
1790.87
1777.55
1765.72
1757.12
1742.75
1508.26
1030.39
939.315
944.075
954.499
967.53
981.451
994.555
1004.67
1007.31
998.12
1831.44
1829.54
1824.75
1817.38
1807.53
1791.37
1756.53
1692.3
1592.62
1464.33
1332.15
1058.77
812.719
925.613
934.308
945.489
959.385
972.384
984.292
994.073
999.572
998.453
988.363
1430.61
1405.95
1350.85
1263.76
1136.63
942.499
732.602
525.596
343.141
204.454
133.659
116.838
600.637
805.839
908.018
943.168
959.014
969.16
976.458
980.804
981.169
972.348
941.717
118.598
104.536
75.7394
37.4763
0.327468
0.251591
0.231023
0.258269
0.362432
1.04141
12.5469
79.987
49.0212
137.526
316.373
469.171
594.24
661.171
677.607
659.821
595.872
499.147
347.882
0.156142
0.161374
0.168143
0.188217
0.233339
0.230381
0.228604
0.245845
0.273504
4.96529
15.8592
7.81864
0.301164
0.817548
0.194489
0.00143504
-0.0285233
3.53367
7.69334
-0.218079
-0.341848
-0.384009
-0.392307
0.161195
0.165137
0.172264
0.18558
0.203114
0.208476
0.210757
0.216754
0.351173
2.97214
3.02417
0.0931624
0.0825708
0.163998
0.0183636
-0.0289925
-0.080038
-0.14079
-0.212022
-0.277288
-0.352855
-0.400262
-0.428015
0.163218
0.165997
0.171374
0.179629
0.188405
0.192868
0.194242
0.192487
0.225333
0.325878
0.0776357
0.0703424
0.0566618
0.02091
-0.0257855
-0.072136
-0.124022
-0.186622
-0.258745
-0.330545
-0.395439
-0.440754
-0.462309
0.161897
0.163552
0.166883
0.171426
0.175546
0.177182
0.17571
0.170654
0.156509
0.117812
0.0900057
0.0692414
0.045607
0.0080244
-0.0375727
-0.0882645
-0.147369
-0.216386
-0.292941
-0.351744
-0.277796
-0.177624
-0.106008
0.157698
0.158413
0.159943
0.161721
0.16268
0.161624
0.157668
0.149592
0.134849
0.112834
0.0889106
0.0661665
0.0378764
0.000474439
-0.0442046
-0.0962427
-0.158281
-0.230242
-0.308026
-0.29283
0.0798252
0.345123
0.329969
0.151534
0.151537
0.151697
0.151517
0.150318
0.147314
0.141785
0.132951
0.120036
0.103069
0.0825842
0.0600868
0.0320341
-0.00269661
-0.0446155
-0.0947161
-0.154479
-0.22247
-0.295424
-0.24068
-0.124585
-0.216404
-0.366181
0.144125
0.143647
0.142871
0.141406
0.138827
0.134618
0.128293
0.119402
0.10763
0.0929306
0.0751725
0.0542451
0.0287232
-0.00234345
-0.0398679
-0.0848662
-0.137869
-0.195681
-0.255773
-0.316758
-0.364508
-0.395273
-0.409723
0.136047
0.135262
0.133903
0.131667
0.128299
0.123466
0.116859
0.108212
0.0973508
0.0841681
0.0684256
0.0496963
0.0272008
0.000181046
-0.0321826
-0.0705978
-0.11504
-0.163909
-0.213649
-0.259873
-0.297807
-0.325486
-0.34453
0.127647
0.126702
0.125028
0.122397
0.118661
0.113611
0.107055
0.0988295
0.0888156
0.0768982
0.0628505
0.046298
0.0267327
0.00358507
-0.0237469
-0.0556886
-0.0920053
-0.131352
-0.171263
-0.208535
-0.240319
-0.266312
-0.287776
0.119201
0.118183
0.116377
0.113602
0.109782
0.104783
0.0984874
0.090791
0.0816079
0.0708365
0.0582969
0.0437181
0.0267553
0.00701217
-0.0159045
-0.0422169
-0.0716908
-0.103414
-0.135762
-0.166595
-0.194144
-0.218374
-0.24022
0.110829
0.109814
0.108
0.105248
0.101522
0.0967401
0.0908299
0.0837231
0.0753567
0.0656492
0.0544693
0.0416306
0.0269012
0.0100204
-0.00925048
-0.031017
-0.0550987
-0.0809213
-0.107472
-0.133389
-0.157527
-0.17984
-0.200846
0.102646
0.101662
0.0999112
0.0972807
0.0937574
0.0892893
0.0838316
0.0773394
0.0697665
0.0610512
0.0511006
0.0397882
0.0269596
0.0124477
-0.00388825
-0.0220934
-0.0420376
-0.0633637
-0.0854574
-0.107478
-0.128677
-0.148936
-0.168403
0.0946503
0.0937324
0.0920954
0.089646
0.0863857
0.0822818
0.0773067
0.0714303
0.0646191
0.0568277
0.0479913
0.0380238
0.0268224
0.0142802
0.000312983
-0.0150973
-0.0318587
-0.0497424
-0.0683687
-0.0872194
-0.105792
-0.123889
-0.141412
0.0868842
0.0860368
0.0845334
0.0822944
0.0793262
0.0756076
0.0711212
0.0658466
0.0597596
0.0528274
0.0450043
0.0362315
0.0264403
0.0155609
0.0035417
-0.00962475
-0.023874
-0.0390533
-0.0549164
-0.0711314
-0.0873524
-0.103358
-0.118928
0.0793092
0.0785506
0.0771963
0.0751815
0.0725159
0.0691857
0.0651799
0.0604845
0.0550817
0.0489477
0.0420504
0.0343487
0.025796
0.0163462
0.00596641
-0.0053464
-0.0175469
-0.0305294
-0.044125
-0.0581093
-0.0722318
-0.0862771
-0.100001
0.0719483
0.0712679
0.0700609
0.0682708
0.0659059
0.0629567
0.0594155
0.055272
0.0505133
0.0451217
0.0390739
0.0323408
0.0248901
0.0166904
0.00772005
-0.00202176
-0.0125025
-0.0236463
-0.0353318
-0.0473965
-0.0596528
-0.0719153
-0.0839346
0.0647452
0.0641533
0.0630967
0.0615287
0.0594576
0.0568764
0.0537796
0.0501596
0.0460062
0.0413059
0.0360414
0.0301913
0.0237322
0.0166422
0.00890636
0.000524769
-0.00847848
-0.0180472
-0.0280903
-0.0384847
-0.0490837
-0.0597302
-0.0702196
0.0577126
0.0571977
0.0562834
0.0549292
0.0531406
0.0509115
0.0482374
0.0451121
0.0415274
0.0374723
0.0329332
0.0278936
0.0223358
0.0162434
0.00960543
0.00242219
-0.00528837
-0.0134839
-0.0220941
-0.0310216
-0.0401479
-0.0493513
-0.0584542
0.0508012
0.0503709
0.0495972
0.0484488
0.04693
0.0450359
0.0427625
0.0401043
0.037054
0.0336023
0.0297376
0.0254465
0.0207144
0.0155281
0.00987867
0.00376559
-0.00279794
-0.00977982
-0.0171255
-0.0247567
-0.0325746
-0.0404778
-0.0483469
0.0440267
0.043666
0.0430222
0.0420678
0.040805
0.0392284
0.0373341
0.0351166
0.032569
0.0296829
0.0264476
0.0228512
0.0188807
0.0145244
0.00977371
0.00462696
-0.000907159
-0.00680503
-0.0130247
-0.0195027
-0.0261555
-0.0329039
-0.0396534
0.0373375
0.0370519
0.0365355
0.0357661
0.0347462
0.0334703
0.0319343
0.0301328
0.0280588
0.0257039
0.0230578
0.0201088
0.0168448
0.013254
0.0093274
0.00506116
0.000459844
-0.00446021
-0.00966798
-0.0151136
-0.0207255
-0.0264303
-0.0321808
0.0307437
0.0305207
0.0301219
0.0295264
0.028736
0.0277442
0.026547
0.0251383
0.023511
0.021656
0.019563
0.01722
0.0146144
0.0117339
0.00856805
0.00511057
0.0013617
-0.00266895
-0.00695981
-0.0114734
-0.016149
-0.0209254
-0.0257616
0.0242029
0.0240467
0.0237625
0.0233312
0.0227576
0.0220344
0.0211573
0.0201199
0.0189142
0.0175307
0.0159582
0.014184
0.0121946
0.00997632
0.00751701
0.0048074
0.0018434
-0.00137158
-0.00482489
-0.00849052
-0.01232
-0.0162509
-0.0202673
0.0177278
0.0176232
0.0174433
0.0171647
0.0167952
0.0163255
0.0157513
0.015065
0.014258
0.0133198
0.012238
0.0109991
0.00958819
0.00799004
0.00619018
0.00417632
0.00193996
-0.000521644
-0.00320358
-0.00609106
-0.00914832
-0.0123228
-0.0155843
0.0112668
0.0112149
0.0111362
0.0110015
0.0108253
0.0105961
0.0103094
0.00995663
0.009528
0.00901177
0.00839447
0.00766105
0.00679519
0.00577991
0.00459841
0.00323524
0.00167761
-8.27977e-05
-0.00204881
-0.00421552
-0.00656179
-0.00903552
-0.0116158
0.00481316
0.00479623
0.00480878
0.00480846
0.00481548
0.00481561
0.00480353
0.00476938
0.00470192
0.00458797
0.00441254
0.00415901
0.00380939
0.0033448
0.00274615
0.00199499
0.00107463
-2.8812e-05
-0.00132461
-0.00281736
-0.00449879
-0.00633521
-0.00828086
-0.00166912
-0.00165875
-0.00156033
-0.00143368
-0.00125238
-0.00103305
-0.000782078
-0.000510893
-0.000232355
3.85486e-05
0.000285087
0.00048872
0.000629605
0.000686773
0.000638934
0.000464932
0.000144682
-0.000340127
-0.00100512
-0.00186265
-0.00291894
-0.00415112
-0.00552156
-0.00814654
-0.00813135
-0.00795983
-0.00771587
-0.00737015
-0.00694136
-0.00643817
-0.00587379
-0.00526317
-0.00462317
-0.00397271
-0.00333242
-0.00272457
-0.00217248
-0.00170015
-0.00133136
-0.00108913
-0.000995005
-0.00106871
-0.00132833
-0.00179083
-0.00246208
-0.00329263
-0.0146782
-0.0146783
-0.014445
-0.0140922
-0.0135889
-0.0129567
-0.0122078
-0.0113578
-0.0104237
-0.00942449
-0.00838109
-0.00731662
-0.00625604
-0.00522581
-0.00425334
-0.00336628
-0.0025917
-0.00195529
-0.00148033
-0.00118697
-0.00109684
-0.00123074
-0.00159271
-0.0214267
-0.0215618
-0.021268
-0.0208054
-0.0201388
-0.0192988
-0.0183002
-0.0171608
-0.0158993
-0.0145365
-0.0130954
-0.0116015
-0.0100827
-0.00856891
-0.0070917
-0.00568373
-0.00437782
-0.00320601
-0.00219881
-0.00138418
-0.000784845
-0.000413039
-0.000240406
5036.65
723.198
-601.326
-603.95
8458.39
6608.11
4325.79
313.807
4403.01
7802.98
7337.28
6566
837.904
1609.82
2616.84
5554.48
820.647
746.462
691.183
766.511
866.109
806.196
753.348
698.642
927.358
884.493
846.968
811.189
961.864
931.998
906.485
881.932
970.391
947.497
927.732
908.326
965.835
947.5
931.215
914.293
894.167
844.201
808.44
755.67
198.017
84.5478
2.30828
-0.287955
-0.386155
-0.37812
-0.356312
-0.11055
-0.441073
-0.4456
0.185186
0.467695
-0.466481
-0.162207
0.604077
-0.425836
0.0248078
0.282402
-0.299809
-0.498662
-0.128289
-0.496148
-0.482568
-0.474917
-0.429126
-0.458725
-0.449979
-0.443341
-0.408863
-0.406728
-0.404163
-0.401212
-0.351111
-0.353635
-0.355336
-0.355687
-0.298703
-0.304208
-0.308644
-0.311449
-0.253125
-0.260134
-0.266079
-0.270483
-0.214189
-0.221723
-0.228318
-0.233611
-0.18117
-0.188643
-0.195338
-0.200992
-0.153219
-0.160307
-0.16677
-0.172425
-0.129595
-0.136103
-0.142127
-0.147545
-0.109513
-0.115378
-0.120878
-0.125924
-0.0923544
-0.0975858
-0.102531
-0.107145
-0.0776281
-0.0822542
-0.0866673
-0.0908283
-0.0649474
-0.0690221
-0.0729254
-0.0766456
-0.0540074
-0.0575733
-0.0610159
-0.0643143
-0.044567
-0.0476771
-0.0506853
-0.0535922
-0.036411
-0.0391
-0.0417239
-0.0442658
-0.0293731
-0.0316857
-0.0339457
-0.0361547
-0.0233054
-0.0252654
-0.0272043
-0.029103
-0.0180991
-0.01974
-0.021367
-0.0229806
-0.0136386
-0.0149738
-0.0163247
-0.0176694
-0.0098493
-0.0109057
-0.0119816
-0.0130772
-0.00666091
-0.00744502
-0.00827294
-0.00912765
-0.00403885
-0.00457323
-0.00514498
-0.00576718
-0.00198296
-0.00227553
-0.00261019
-0.00298897
-0.000263693
-0.000325882
-0.000417517
-0.00055212
-604.008
-605.375
-605.298
-405.354
-85.2549
178.47
378.788
518.595
601.018
631.86
626.203
604.555
597.593
610.904
648.855
786.041
1052.69
1341.18
1632.65
-603.447
-604.789
-524.063
-302.743
-80.9254
149.549
330.544
451.833
513.225
513.573
459.147
341.789
247.502
185.783
125.727
216.51
608.33
1028.25
1388.27
3299.46
1237.81
-193.242
-292.895
-49.0796
166.481
323.144
420.73
454.803
332.447
159.41
19.0945
-1.83266
-2.17149
-1.79559
2.16649
148.648
668.962
1036.5
5252.32
5106.68
3207.01
62.0583
103.77
260.174
375.61
436.343
251.702
13.4248
-2.36674
-2.71922
-2.8113
-2.67143
-2.51078
-2.33917
0.793573
407.56
762.172
2010.37
1853.71
949.391
357.579
322.615
394.807
456.918
212.946
-2.51261
-2.51726
-2.80782
-3.0081
-3.15397
-3.19022
-3.09494
-2.96761
-2.74962
153.466
626.873
623.865
581.219
559.437
509.416
487.089
521.788
242.533
-2.63301
-2.25188
-2.49328
-2.81292
-3.10684
-3.36286
-3.56199
-3.55969
-3.51881
-3.69439
-3.44395
541.143
759.602
710.395
666.491
624.433
606.302
329.67
-1.4024
-1.81567
-2.06008
-2.36284
-2.67455
-3.00155
-3.31389
-3.59847
-3.63256
-4.04114
-3.67431
-4.75993
590.017
841.58
791.005
741.832
705.335
405.727
6.725
-1.31922
-1.57028
-1.85863
-2.14937
-2.47417
-2.79526
-3.111
-3.41197
-3.57608
-4.23643
-3.38767
-4.35554
657.34
873.731
829.152
756.76
397.393
2.63864
-0.947818
-1.13598
-1.39025
-1.64992
-1.94214
-2.2397
-2.54536
-2.84445
-3.13785
-3.41637
-3.99885
-3.24518
0.303905
726.59
877.569
721.106
222.838
-0.585114
-0.648701
-0.82181
-1.01114
-1.23514
-1.48687
-1.73851
-1.99283
-2.24711
-2.51309
-2.77082
-3.04577
-3.41588
-3.04515
3.45414
660.284
394.769
1.71064
-0.695485
-0.573356
-0.664922
-0.773125
-0.938613
-1.13405
-1.33656
-1.54219
-1.74755
-1.95021
-2.1494
-2.334
-2.50711
-2.66196
-2.38062
1.15958
80.4964
-0.407677
-0.43677
-0.597413
-0.589907
-0.654558
-0.767487
-0.891694
-1.03967
-1.19731
-1.35594
-1.5104
-1.65561
-1.78372
-1.88106
-1.93031
-1.90696
-1.61541
-0.968235
0.611476
-0.162575
-0.371169
-0.549084
-0.611309
-0.650167
-0.730322
-0.831292
-0.94544
-1.06487
-1.18227
-1.29082
-1.38289
-1.4479
-1.47072
-1.42737
-1.28089
-0.991943
-0.483439
0.425857
-0.138836
-0.504814
-0.534695
-0.575892
-0.626775
-0.69235
-0.77032
-0.856039
-0.943214
-1.02513
-1.09463
-1.14338
-1.16066
-1.13257
-1.04059
-0.857174
-0.567223
-0.248705
0.298494
-0.496336
-0.503076
-0.523731
-0.555816
-0.597836
-0.649696
-0.708749
-0.771266
-0.832087
-0.885256
-0.924057
-0.940686
-0.925786
-0.868409
-0.756583
-0.57784
-0.329404
-0.0658844
0.0988008
-0.490064
-0.490528
-0.506548
-0.531572
-0.564344
-0.60386
-0.647347
-0.691335
-0.731436
-0.762519
-0.778735
-0.773482
-0.739394
-0.6687
-0.554439
-0.392298
-0.183886
0.0435429
0.187417
-0.467266
-0.469017
-0.481567
-0.501347
-0.526733
-0.556169
-0.587201
-0.616765
-0.641151
-0.656069
-0.656723
-0.637928
-0.594359
-0.521108
-0.414921
-0.276211
-0.111323
0.0574428
0.150896
-0.436889
-0.440211
-0.450803
-0.466679
-0.486234
-0.507796
-0.529227
-0.547935
-0.56086
-0.564545
-0.55525
-0.529167
-0.482764
-0.413393
-0.320397
-0.206847
-0.0813526
0.0377391
0.0995119
-0.398865
-0.405394
-0.415663
-0.429
-0.444209
-0.459856
-0.474161
-0.485004
-0.489942
-0.486293
-0.471282
-0.442283
-0.397187
-0.334962
-0.256536
-0.166069
-0.0721131
0.0113109
0.0537066
-0.357646
-0.367238
-0.37794
-0.389775
-0.401934
-0.413324
-0.422547
-0.427938
-0.427615
-0.41958
-0.401874
-0.372817
-0.331339
-0.277445
-0.21286
-0.141853
-0.0717959
-0.0129407
0.0164104
-0.316772
-0.328489
-0.339644
-0.350523
-0.360574
-0.369
-0.374746
-0.376552
-0.373025
-0.362738
-0.344386
-0.316994
-0.280203
-0.234611
-0.182215
-0.126885
-0.074529
-0.0324395
-0.0119139
-0.278069
-0.290967
-0.302336
-0.312497
-0.321068
-0.327477
-0.330948
-0.330559
-0.325318
-0.314254
-0.296559
-0.271762
-0.239948
-0.202004
-0.159893
-0.116894
-0.0775644
-0.0470099
-0.0324114
-0.242458
-0.255748
-0.267036
-0.276569
-0.284071
-0.289132
-0.291193
-0.289602
-0.28368
-0.272805
-0.256531
-0.234724
-0.207725
-0.176515
-0.142871
-0.109464
-0.0797332
-0.0572408
-0.0466772
-0.210323
-0.223409
-0.234341
-0.243265
-0.249964
-0.254139
-0.255392
-0.253279
-0.247357
-0.23726
-0.222793
-0.204035
-0.181453
-0.156008
-0.129234
-0.103254
-0.0806428
-0.0638818
-0.0561249
-0.181695
-0.194169
-0.204539
-0.212848
-0.218913
-0.22251
-0.223361
-0.221169
-0.215666
-0.206666
-0.194141
-0.17829
-0.159625
-0.139027
-0.117781
-0.0975534
-0.0802619
-0.067648
-0.0618834
-0.156401
-0.168019
-0.177689
-0.185378
-0.190921
-0.194141
-0.194846
-0.192847
-0.187995
-0.180228
-0.169617
-0.156424
-0.141154
-0.124582
-0.107765
-0.0920012
-0.0787209
-0.0691524
-0.0648338
-0.134164
-0.144805
-0.153707
-0.160781
-0.165875
-0.168847
-0.16956
-0.167902
-0.163804
-0.157281
-0.148463
-0.137632
-0.125255
-0.112
-0.0987238
-0.0864349
-0.0762034
-0.068906
-0.0656508
-0.114672
-0.124303
-0.132417
-0.138894
-0.143591
-0.14639
-0.147196
-0.145943
-0.142617
-0.137276
-0.130076
-0.121298
-0.111358
-0.100819
-0.0903709
-0.0807966
-0.0729017
-0.0673155
-0.0648562
-0.0976179
-0.10626
-0.113601
-0.119507
-0.123844
-0.126514
-0.127446
-0.126608
-0.124016
-0.119751
-0.113977
-0.106954
-0.0990454
-0.0907194
-0.0825292
-0.0750828
-0.0689901
-0.0647085
-0.0628481
-0.0827124
-0.0904178
-0.0970211
-0.102386
-0.106391
-0.108951
-0.110014
-0.109565
-0.107638
-0.104323
-0.0997773
-0.0942342
-0.0880053
-0.0814758
-0.0750876
-0.0693141
-0.0646195
-0.0613388
-0.0599346
-0.0696955
-0.0765279
-0.0824382
-0.0872949
-0.0909883
-0.0934439
-0.0946207
-0.094516
-0.0931696
-0.0906711
-0.0871649
-0.0828549
-0.0780038
-0.0729266
-0.0679755
-0.0635194
-0.059914
-0.0574069
-0.0563509
-0.0583317
-0.0643588
-0.0696237
-0.0740036
-0.0773995
-0.0797458
-0.0810094
-0.0811928
-0.0803367
-0.0785242
-0.0758835
-0.0725893
-0.0688601
-0.064952
-0.0611453
-0.0577278
-0.0549731
-0.0530663
-0.0522769
-0.0484135
-0.0537001
-0.0583654
-0.0622964
-0.0654043
-0.0676307
-0.0689475
-0.069359
-0.0689033
-0.0676543
-0.0657226
-0.0632553
-0.0604325
-0.057461
-0.0545635
-0.0519643
-0.0498755
-0.048435
-0.0478511
-0.0397567
-0.0443623
-0.0484697
-0.0519756
-0.0548005
-0.0568922
-0.0582259
-0.0588057
-0.058665
-0.0578675
-0.0565065
-0.054704
-0.052607
-0.0503816
-0.0482036
-0.0462488
-0.0446801
-0.0436039
-0.043176
-0.0322029
-0.0361786
-0.0397635
-0.0428632
-0.0454063
-0.0473459
-0.0486595
-0.0493499
-0.0494454
-0.0489991
-0.0480882
-0.0468126
-0.0452908
-0.0436551
-0.0420443
-0.0405945
-0.039433
-0.0386382
-0.0383322
-0.0256129
-0.0290023
-0.0320938
-0.0348007
-0.0370593
-0.0388273
-0.0400841
-0.0408312
-0.0410912
-0.0409075
-0.0403428
-0.0394773
-0.0384057
-0.0372323
-0.0360654
-0.0350107
-0.034165
-0.0335912
-0.0333748
-0.0198682
-0.0227067
-0.0253265
-0.0276485
-0.0296159
-0.0311911
-0.0323556
-0.0331092
-0.0334695
-0.033471
-0.0331635
-0.0326104
-0.0318858
-0.0310707
-0.0302488
-0.0295005
-0.028901
-0.028495
-0.0283501
-0.0148679
-0.0171823
-0.019345
-0.0212836
-0.022949
-0.0243087
-0.0253461
-0.02606
-0.0264635
-0.0265833
-0.0264577
-0.0261354
-0.0256731
-0.0251323
-0.0245758
-0.0240646
-0.0236535
-0.02338
-0.0232847
-0.0105318
-0.0123384
-0.0140491
-0.015599
-0.0169472
-0.0180665
-0.0189429
-0.0195747
-0.0199711
-0.0201517
-0.0201448
-0.0199863
-0.0197176
-0.0193836
-0.0190299
-0.0187001
-0.0184349
-0.0182591
-0.0182049
-0.00679582
-0.00810003
-0.00935467
-0.0105029
-0.0115134
-0.0123653
-0.0130476
-0.0135583
-0.0139033
-0.0140959
-0.0141553
-0.014106
-0.013976
-0.0137955
-0.0135953
-0.0134044
-0.0132497
-0.0131514
-0.0131232
-0.00362496
-0.0044089
-0.00518673
-0.00590942
-0.0065554
-0.00711005
-0.00756555
-0.00791964
-0.00817485
-0.00833872
-0.00842226
-0.00843931
-0.00840572
-0.00833852
-0.00825494
-0.00817122
-0.00810273
-0.00805981
-0.00805003
-0.000799694
-0.00108703
-0.00139905
-0.00169496
-0.00196517
-0.00220405
-0.00240914
-0.00258052
-0.00271992
-0.0028289
-0.00290988
-0.0029662
-0.00300195
-0.00302172
-0.00303017
-0.00303162
-0.00302964
-0.00302642
-0.0030226
)
;

boundaryField
{
    leftWall
    {
        type            fixedFluxPressure;
        gradient        uniform 0;
        value           nonuniform List<scalar> 
50
(
9730.86
9724.63
9716.03
9704.46
9690.69
9675.18
9654.11
9619.48
9121.24
3768.1
1912.68
1905.26
1896
1884.89
1872.52
1859.41
1845.44
1831.44
1430.61
118.598
0.156142
0.161195
0.163218
0.161897
0.157698
0.151534
0.144125
0.136047
0.127647
0.119201
0.110829
0.102646
0.0946503
0.0868842
0.0793092
0.0719483
0.0647452
0.0577126
0.0508012
0.0440267
0.0373375
0.0307437
0.0242029
0.0177278
0.0112668
0.00481316
-0.00166912
-0.00814654
-0.0146782
-0.0214267
)
;
    }
    rightWall
    {
        type            fixedFluxPressure;
        gradient        uniform 0;
        value           nonuniform List<scalar> 
50
(
1799.02
1814.42
1829.95
1839.53
1838.52
1824.79
1793.13
1736.66
1632.65
1388.27
1036.5
762.172
626.873
541.143
590.017
657.34
726.59
660.284
80.4964
0.611476
0.425857
0.298494
0.0988008
0.187417
0.150896
0.0995119
0.0537066
0.0164104
-0.0119139
-0.0324114
-0.0466772
-0.0561249
-0.0618834
-0.0648338
-0.0656508
-0.0648562
-0.0628481
-0.0599346
-0.0563509
-0.0522769
-0.0478511
-0.043176
-0.0383322
-0.0333748
-0.0283501
-0.0232847
-0.0182049
-0.0131232
-0.00805003
-0.0030226
)
;
    }
    lowerWall
    {
        type            fixedFluxPressure;
        gradient        uniform 0;
        value           nonuniform List<scalar> 
62
(
9730.86
9716.39
9666.5
9586.58
9477.75
9340.04
9174
8980.83
8762.56
8521.99
8262.83
7990.53
7714.81
7451.01
7223.55
7069.55
7044.82
7228.98
7738.9
8687.49
10070.6
11626.8
13311.8
13311.8
13296.1
13051.8
12632.1
12031
11258
10354.6
9417.51
5036.65
723.198
-601.326
-603.95
643.931
550.329
307.755
-36.9261
-308.243
-442.499
-406.488
-531.853
643.931
-34.3134
-200.664
-13.9276
350.645
600.337
751.409
858.476
926.492
958.007
969.021
982.544
1016.31
1084.51
1195.71
1343.24
1511.76
1660.45
1799.02
)
;
    }
    atmosphere
    {
        type            totalPressure;
        rho             rho;
        psi             none;
        gamma           1;
        p0              uniform 0;
        value           nonuniform List<scalar> 
46
(
-0.0249925
-0.0255036
-0.0251507
-0.0246019
-0.0238372
-0.0228799
-0.0217444
-0.0204482
-0.0190099
-0.017451
-0.0157951
-0.0140689
-0.0123016
-0.0105249
-0.00877264
-0.00708028
-0.00548414
-0.00402075
-0.00272615
-0.00163564
-0.000785019
-0.000216342
-1.10741e-07
0
0
0
0
0
0
0
0
0
0
0
0
0
0
0
0
0
0
0
0
0
0
0
)
;
    }
    defaultFaces
    {
        type            empty;
    }
}


// ************************************************************************* //
