/*--------------------------------*- C++ -*----------------------------------*\
| =========                 |                                                 |
| \\      /  F ield         | OpenFOAM: The Open Source CFD Toolbox           |
|  \\    /   O peration     | Version:  2312                                  |
|   \\  /    A nd           | Website:  www.openfoam.com                      |
|    \\/     M anipulation  |                                                 |
\*---------------------------------------------------------------------------*/
FoamFile
{
    version     2.0;
    format      ascii;
    arch        "LSB;label=32;scalar=64";
    class       volScalarField;
    location    "2.1";
    object      alpha.galistan;
}
// * * * * * * * * * * * * * * * * * * * * * * * * * * * * * * * * * * * * * //

dimensions      [0 0 0 0 0 0 0];

internalField   nonuniform List<scalar> 
2268
(
1
1
1
1
1
1
1
1
1
1
1
1
1
1
1
1
1
1
1
1
0.999999
0.999949
0.999939
1
1
1
1
1
1
1
1
1
1
1
1
1
1
1
1
1
1
1
1
1
0.999978
0.999954
1
1
1
1
1
1
1
1
1
1
1
1
1
1
1
1
1
1
1
1
1
1
0.999999
1
1
1
1
1
1
1
1
1
1
1
1
1
1
1
1
1
1
0.999999
0.999999
1
1
1
1
1
1
1
0.999999
0.999998
0.999996
0.999999
0.999992
0.999972
0.999979
0.997074
0.977637
0.956645
0.943626
0.942535
0.952215
0.964046
0.9724
0.980638
0.996722
0.999548
0.999606
0.999866
0.999103
0.996927
0.999925
0.999973
0.999837
0.996825
0.975179
0.915479
0.792001
0.626066
0.458957
0.345191
0.274738
0.244045
0.242166
0.266383
0.300839
0.335635
0.362585
0.380448
0.455643
0.579446
0.998165
0.987866
0.995985
0.999923
0.909411
0.706765
0.475786
0.296512
0.158194
0.0474375
0.00426092
0.000760365
2.5905e-05
6.52998e-22
5.29481e-22
6.53016e-22
5.66981e-22
8.02514e-22
3.18157e-09
-2.25619e-07
0.00633397
0.00963911
0.0468609
0.997102
0.944734
0.75485
0.416968
0.152081
0.0217307
1.24663e-06
1.88389e-05
0.000231959
0.000214296
0.000116362
2.02799e-07
6.82082e-13
1.46979e-10
1.03992e-09
2.64835e-09
3.22666e-09
3.01075e-21
0.00124009
0.00798966
0.0120633
0.0135616
0.0166396
0.887961
0.916658
0.916214
0.909431
0.919265
0.919722
0.921126
0.923516
0.926151
0.926541
0.932384
0.935093
0.94311
0.944026
0.944929
0.945676
0.945674
0.935439
0.930643
0.880317
0.916598
0.890988
0.829433
0.732614
0.637853
0.639206
0.675901
0.748601
0.733822
0.72157
0.711926
0.799529
0.90128
0.887083
0.831104
0.720427
0.54017
0.552816
0.825247
0.784295
0.716766
0.525636
0.420495
0.330541
0.260108
0.283506
0.344066
0.491227
0.553926
0.56721
0.569786
0.641919
0.515576
0.336254
0.0597371
0.0185798
0.0435292
0.358224
0.255635
0.258325
0.242121
0.163447
0.157501
0.156582
0.148999
0.119321
0.14388
0.283678
0.417294
0.493608
0.376609
0.294224
0.0161881
0.0121888
0.025637
0.00773775
0.11422
0.147903
0.125587
0.180848
0.181022
0.171085
0.129634
0.116624
0.116601
0.1165
0.115112
0.301524
0.343327
0.283285
0.0269956
0.0111798
0.0214697
0.0387087
0.0077357
0.114444
0.110982
0.122446
0.109498
0.0919436
0.0739276
0.0761417
0.117278
0.128136
0.123233
0.0995408
0.172235
0.154869
0.0406786
0.0105643
0.0113284
0.0386638
0.0387063
0.0121049
0.0317715
0.0232934
0.0102982
0.0182499
0.0135437
0.0063157
1.24087e-06
0.00223778
0.0557762
0.0980497
0.047973
0.0169614
0.00754534
0.00279337
0.01074
0.0260288
0.0386757
0.0379033
0.0141935
0.0145658
0.00154501
0.00753191
0.00949976
0.00571775
1.24171e-06
1.24409e-06
1.24018e-06
0.00212489
0.0263214
0.0209613
0.00275599
0.00274874
0.00281548
0.0128243
0.0381986
0.0379149
0.00584923
0.00905827
0.287257
0.132722
0.0380823
0.00468287
0.00205083
7.37491e-05
1.55381e-05
2.01457e-05
2.64904e-05
1.81782e-05
3.84993e-23
8.76929e-34
-1.39333e-29
1.67327e-11
1.03901e-08
7.43065e-08
3.31412e-09
3.8754e-05
0.00741305
0.0124534
0.012391
0.00778673
0.00168805
0.0221486
0.0245999
0.00623238
0.00187066
0.00142869
0.00108367
0.000346029
0.000176775
7.62679e-05
0.000113862
0.000111262
1.42027e-05
-2.68989e-24
1.61597e-06
2.40278e-06
1.57578e-06
3.34645e-06
0.00017794
0.00160396
0.00204996
0.000982905
0.000385821
0.000394697
1.21566e-06
1.22999e-06
1.21986e-06
9.08397e-05
0.000585788
0.000741413
0.00063229
0.000224776
3.29651e-06
2.85869e-05
0.000114003
7.35404e-05
2.60586e-05
1.95287e-05
7.48434e-07
8.07063e-07
6.29521e-06
0.00010015
0.000202695
0.000163376
0.000256795
0.00199489
0.00422013
0.000122305
8.49337e-05
2.3411e-06
7.03476e-06
3.19009e-05
9.74135e-06
9.1512e-06
9.82352e-06
8.85095e-07
3.60291e-08
2.18419e-05
7.26943e-05
2.10269e-05
2.08778e-05
3.24678e-05
2.15615e-05
3.53896e-05
0.000123181
0.000121474
0.000189168
0.00158786
0.00419497
0.00530914
1.1881e-05
1.47604e-05
2.49197e-06
2.20803e-06
7.51574e-06
1.26166e-05
7.82511e-06
3.22867e-07
6.30189e-10
6.18263e-10
1.56229e-05
0.000198027
0.000106774
2.18538e-05
5.8228e-05
5.01878e-05
3.21727e-05
0.000135687
0.000133114
0.000138053
0.000769352
0.00420427
0.00487926
4.88461e-08
4.88331e-08
1.40016e-07
2.58753e-06
7.52544e-06
2.14813e-05
2.12962e-05
4.42169e-06
5.55636e-10
8.60222e-05
0.000199589
0.000223206
0.000223058
0.000138096
5.68542e-05
3.48412e-05
8.62127e-07
2.42501e-05
5.82752e-05
0.00030148
0.000566717
0.000563377
0.000529514
4.90291e-08
4.88296e-08
1.09905e-05
4.2325e-05
4.60543e-05
2.51748e-05
1.08493e-06
1.33109e-05
8.24245e-05
0.000141346
0.000223207
0.000223287
0.00018583
6.42074e-05
5.33523e-05
3.67642e-06
5.05773e-07
5.07869e-07
6.65701e-05
0.000544495
0.000556316
0.000237111
0.000167476
2.73319e-05
7.6469e-05
2.23373e-05
1.35332e-07
4.0136e-06
9.80706e-07
1.30397e-06
9.31571e-06
1.46562e-05
2.10031e-05
7.48586e-05
8.19593e-05
5.92194e-05
2.53396e-05
1.62301e-05
4.71596e-05
5.72202e-05
5.09882e-05
0.000410724
0.000604129
0.000522109
0.000276836
0.00040246
0.000222819
0.000324123
5.48535e-05
7.27916e-10
7.72346e-10
4.09513e-08
4.45317e-08
0.00012353
0.000276244
0.000199136
3.24238e-05
4.59137e-06
4.29212e-06
2.94938e-06
2.85013e-06
3.74064e-06
0.000112978
0.00025927
0.000354431
0.000452311
0.000815416
0.00274459
0.00932031
0.000371011
0.00094934
0.000124115
7.25687e-10
4.51825e-07
7.78458e-06
9.98758e-06
9.73036e-06
0.00206878
0.007125
0.00721392
0.00306118
0.000112621
0.000178458
0.00020373
0.000184733
0.000351944
0.000557697
0.000722393
0.000583226
0.00576869
0.013627
0.0135423
0.000227247
0.000953775
0.000490355
7.27916e-10
7.38868e-10
9.00959e-06
0.000130566
0.000214548
0.000378318
0.00154428
0.00941213
0.0116357
0.0116403
0.011488
0.0115569
0.0137758
0.0148276
0.0148249
0.0123181
0.00206099
5.41705e-08
5.43743e-08
1.10573e-06
0.000129515
0.000962078
0.00042041
7.37393e-10
4.9931e-07
9.5515e-06
1.23154e-05
4.34506e-07
1.85786e-18
2.03352e-18
-1.4783e-27
-7.05576e-28
2.77124e-18
2.18987e-22
-9.98405e-27
1.07625e-24
3.00808e-08
3.76967e-08
1.06632e-07
1.057e-07
4.63008e-07
8.12086e-06
1.09089e-05
0.000119713
0.000952962
0.000130093
6.35346e-10
1.7878e-07
1.19771e-06
4.70836e-07
7.8084e-10
7.73606e-10
9.59887e-10
2.54914e-09
3.22746e-09
2.10726e-09
4.14759e-09
7.59512e-08
4.87663e-07
8.88851e-07
7.67442e-07
1.4129e-06
1.43292e-06
1.36539e-06
7.67699e-06
1.45055e-05
0.000505345
0.000838253
3.06071e-06
6.43232e-10
7.55522e-08
1.22912e-07
2.11132e-08
8.12379e-09
3.02635e-09
4.523e-09
2.52449e-09
4.9912e-09
8.74263e-09
2.75568e-08
7.23818e-08
2.3506e-07
1.05651e-06
1.0557e-06
9.00754e-07
1.46399e-06
2.1654e-06
9.87117e-07
4.69937e-10
0.000872226
0.000211286
8.19423e-09
4.83271e-09
2.56484e-08
2.68451e-09
2.67004e-09
1.24059e-07
2.21267e-07
1.6669e-07
4.27991e-08
7.92088e-09
3.09793e-09
2.65488e-09
1.76756e-08
3.16889e-08
2.86983e-20
2.81744e-20
-3.10038e-11
-2.36944e-11
1.33743e-09
5.26774e-10
5.29297e-10
0.000872957
2.12869e-06
1.0892e-07
1.16425e-08
7.54799e-09
6.71677e-09
2.77828e-09
2.69469e-09
3.56978e-07
3.86861e-07
3.61736e-07
6.30607e-08
8.10867e-09
2.65732e-09
1.16619e-08
3.28266e-08
3.19188e-08
1.28119e-08
7.50101e-09
4.95201e-09
3.33076e-09
1.94195e-09
1.59759e-09
0.000649847
1.46173e-06
1.02472e-07
1.65442e-08
4.1032e-09
4.59815e-09
2.45727e-09
4.7947e-09
3.60494e-07
3.86988e-07
3.64762e-07
1.3319e-07
4.41217e-09
7.76876e-09
3.68158e-08
3.76536e-08
3.75723e-08
1.40341e-08
3.42284e-09
3.17252e-09
3.02299e-09
2.46137e-09
2.00584e-09
1.47863e-05
2.2322e-07
3.4011e-08
8.31043e-09
2.47581e-09
2.46476e-09
2.4209e-09
1.33196e-08
3.50415e-07
3.43592e-07
1.77655e-07
3.68892e-08
4.66293e-09
1.09224e-08
3.69826e-08
3.39045e-08
2.31503e-08
8.153e-09
1.00517e-09
6.61351e-10
7.25546e-10
1.00415e-09
1.01532e-09
6.60546e-09
6.50959e-09
6.55337e-09
6.51237e-09
9.43088e-09
8.22852e-09
2.46968e-09
3.38585e-08
1.00004e-07
7.67667e-08
1.85356e-08
2.43116e-09
2.19496e-09
7.22459e-09
1.62603e-08
1.35112e-08
6.29242e-09
9.41062e-10
3.49847e-10
4.00598e-10
5.72675e-10
6.38781e-10
6.8656e-10
6.9314e-09
6.67472e-09
7.12923e-09
2.12699e-08
3.32479e-08
3.35675e-08
2.83835e-08
1.31427e-08
5.01071e-10
4.59828e-10
5.96219e-10
1.35458e-09
2.14926e-09
2.09827e-09
1.48211e-09
7.71298e-10
3.64168e-10
2.68407e-10
2.47218e-10
2.91341e-10
3.19695e-10
3.51591e-10
3.22151e-10
8.36114e-09
5.91503e-09
8.45868e-09
3.02984e-08
3.53421e-08
3.53635e-08
2.89821e-08
4.68942e-09
4.59179e-10
4.58577e-10
6.48513e-10
1.16558e-09
1.19152e-09
9.24351e-10
5.80475e-10
3.40557e-10
2.24989e-10
1.63041e-10
1.51506e-10
1.48885e-10
1.46781e-10
1.21263e-10
1.13509e-10
6.11253e-09
3.69201e-09
1.08265e-08
1.97696e-08
3.37519e-08
3.23521e-08
1.11696e-08
7.7299e-10
5.28158e-10
4.38198e-10
5.32009e-10
6.69561e-10
5.69476e-10
3.86873e-10
2.33315e-10
1.46804e-10
1.03329e-10
7.96183e-11
7.12232e-11
6.11174e-11
5.0247e-11
4.58571e-11
3.62826e-11
3.18211e-09
2.70804e-09
7.36124e-09
1.56043e-08
1.77769e-08
7.60122e-09
1.17199e-09
6.46623e-10
3.61779e-10
2.79006e-10
3.17939e-10
3.0983e-10
2.28839e-10
1.40388e-10
8.26e-11
5.44451e-11
4.07901e-11
3.17747e-11
2.62379e-11
2.18422e-11
1.77255e-11
1.19826e-11
1.027e-11
2.7295e-09
1.69934e-09
2.22029e-09
3.07531e-09
1.03859e-09
7.06251e-10
6.50038e-10
3.36456e-10
1.7615e-10
1.42189e-10
1.47131e-10
1.21487e-10
7.88054e-11
4.47385e-11
2.58445e-11
1.70879e-11
1.28612e-11
1.03105e-11
7.87873e-12
5.63469e-12
4.12485e-12
3.29463e-12
2.36909e-12
2.98953e-09
9.47591e-10
5.78864e-10
3.42741e-10
2.15708e-10
4.59376e-10
2.98722e-10
1.38287e-10
7.35505e-11
6.25567e-11
5.60763e-11
3.9848e-11
2.30775e-11
1.22683e-11
6.91625e-12
4.48228e-12
3.21994e-12
2.44184e-12
1.85404e-12
1.30034e-12
8.74859e-13
5.3655e-13
4.45307e-13
3.21813e-09
6.41705e-10
2.84478e-10
1.97531e-10
1.18174e-10
1.67442e-10
1.12306e-10
4.64302e-11
1.99802e-11
1.88141e-11
1.73416e-11
1.07031e-11
5.58913e-12
2.79747e-12
1.52144e-12
9.532e-13
6.5047e-13
4.55694e-13
3.20851e-13
2.24382e-13
1.35639e-13
8.99022e-14
7.23577e-14
3.72777e-09
5.59383e-10
1.5875e-10
1.04313e-10
6.41176e-11
6.21723e-11
3.4575e-11
1.01176e-11
4.16766e-12
2.46175e-12
2.18244e-12
2.02333e-12
1.09855e-12
5.40143e-13
2.81816e-13
1.66076e-13
1.05159e-13
6.76636e-14
4.37036e-14
2.93634e-14
1.97276e-14
1.09403e-14
1.02221e-14
4.10111e-09
5.54357e-10
1.28486e-10
8.87377e-11
5.13108e-11
3.77179e-11
2.08618e-11
8.863e-12
3.99907e-12
1.83807e-12
8.19357e-13
4.42163e-13
2.42624e-13
1.16935e-13
5.65167e-14
2.91064e-14
1.58338e-14
8.89033e-15
5.18923e-15
2.7614e-15
1.78725e-15
1.36455e-15
1.24222e-15
4.22558e-09
6.28909e-10
1.27905e-10
9.09431e-11
5.96229e-11
4.49918e-11
2.54467e-11
1.10693e-11
4.86066e-12
2.1487e-12
9.16346e-13
3.78801e-13
1.52701e-13
6.26418e-14
2.54285e-14
1.02802e-14
4.17613e-15
1.72515e-15
7.54792e-16
3.60842e-16
2.07069e-16
9.8451e-17
1.17524e-16
4.01999e-09
7.99196e-10
1.31777e-10
1.00473e-10
8.43413e-11
6.96309e-11
3.82501e-11
1.76827e-11
6.61296e-12
3.08663e-12
1.3226e-12
5.38343e-13
2.12013e-13
8.16194e-14
3.08652e-14
1.10686e-14
3.70846e-15
1.173e-15
3.66149e-16
1.20055e-16
3.23388e-17
1.38041e-17
1.22079e-17
4.58732e-09
1.11879e-09
1.34774e-10
1.15856e-10
1.35151e-10
1.14131e-10
7.58252e-11
3.90506e-11
1.47822e-11
7.13894e-12
3.12289e-12
1.23535e-12
4.79624e-13
1.94879e-13
7.84382e-14
2.72926e-14
8.88963e-15
2.55995e-15
6.95179e-16
1.84226e-16
4.24607e-17
5.78053e-18
2.08341e-18
5.94802e-09
1.44942e-09
1.71661e-10
1.44874e-10
2.12019e-10
1.74628e-10
1.48871e-10
8.79911e-11
4.92731e-11
2.46193e-11
8.72714e-12
3.1721e-12
1.42543e-12
6.23649e-13
2.51715e-13
9.4057e-14
2.8919e-14
7.74922e-15
2.05666e-15
5.03292e-16
8.59937e-17
1.59087e-17
2.43032e-18
7.81608e-09
2.47095e-09
1.97275e-10
1.53509e-10
2.34663e-10
2.56276e-10
2.23502e-10
1.7866e-10
1.45363e-10
7.49356e-11
2.57964e-11
8.70456e-12
4.04376e-12
1.80433e-12
7.07228e-13
2.55711e-13
7.85711e-14
2.21935e-14
5.20106e-15
1.21727e-15
2.54832e-16
2.01651e-17
3.14831e-18
1.49001e-08
3.89546e-09
2.27271e-10
1.53796e-10
3.12215e-10
3.56882e-10
4.46911e-10
4.24217e-10
2.87004e-10
1.251e-10
4.04183e-11
1.77875e-11
1.00642e-11
4.54042e-12
1.71019e-12
5.64324e-13
1.68783e-13
4.3561e-14
1.04381e-14
2.33926e-15
3.2878e-16
4.41484e-17
4.25264e-18
1.54262e-08
7.261e-09
8.60695e-10
1.10919e-09
1.25703e-09
6.78291e-10
8.80046e-10
7.6521e-10
4.58999e-10
2.29901e-10
9.10343e-11
3.61473e-11
1.81089e-11
7.8752e-12
2.89893e-12
9.60885e-13
2.79576e-13
7.0997e-14
1.60227e-14
3.24551e-15
6.40757e-16
3.88131e-17
4.82875e-18
1.54677e-08
1.39882e-08
7.58933e-09
7.11505e-09
2.63349e-09
1.22676e-09
1.25276e-09
1.08608e-09
6.50964e-10
3.93953e-10
1.38794e-10
5.00902e-11
2.67949e-11
1.16928e-11
4.31422e-12
1.37328e-12
3.9224e-13
9.55534e-14
2.06683e-14
3.73349e-15
6.33837e-16
8.42032e-17
5.4466e-18
1.06805e-08
1.29417e-08
1.27891e-08
9.38972e-09
3.95351e-09
2.85338e-09
2.08067e-09
1.34775e-09
8.79435e-10
4.24354e-10
1.3757e-10
7.04425e-11
3.69198e-11
1.52967e-11
5.22297e-12
1.58143e-12
4.06461e-13
8.94165e-14
1.69947e-14
2.80879e-15
4.327e-16
1.84685e-17
1.57968e-18
6.22616e-09
1.09e-08
1.09854e-08
1.01281e-08
7.29815e-09
5.29457e-09
2.37836e-09
1.75925e-09
9.60831e-10
3.45736e-10
1.40963e-10
7.96741e-11
3.60462e-11
1.29582e-11
3.97045e-12
1.01825e-12
2.24879e-13
4.29872e-14
7.02624e-15
9.88455e-16
1.14945e-16
1.05712e-17
4.88117e-19
2.01548e-09
3.73679e-09
8.83203e-09
9.68547e-09
8.80178e-09
5.13467e-09
2.81624e-09
1.88176e-09
8.40258e-10
2.81765e-10
1.44354e-10
7.00008e-11
2.51934e-11
7.45512e-12
1.79394e-12
3.67718e-13
6.58222e-14
1.03761e-14
1.43552e-15
1.70258e-16
1.79752e-17
5.54519e-19
5.3791e-20
1.42441e-09
2.57125e-09
3.88533e-09
6.47976e-09
6.57089e-09
4.21153e-09
2.86407e-09
1.50071e-09
5.62709e-10
2.55865e-10
1.16385e-10
4.26314e-11
1.2264e-11
2.73272e-12
5.04957e-13
8.05984e-14
1.14012e-14
1.44174e-15
1.59819e-16
1.56885e-17
1.04696e-18
5.82992e-20
2.89651e-21
1.24142e-09
1.70831e-09
1.74155e-09
3.55451e-09
4.29374e-09
3.61685e-09
2.3013e-09
9.61997e-10
3.96202e-10
1.82023e-10
6.59935e-11
1.9499e-11
4.24872e-12
7.11802e-13
9.67317e-14
1.13431e-14
1.18922e-15
1.12887e-16
9.67598e-18
7.35165e-19
4.85084e-20
1.97995e-21
8.61624e-23
6.08012e-10
9.5662e-10
1.33284e-09
1.80052e-09
2.42949e-09
1.84735e-09
9.71016e-10
4.20835e-10
2.10219e-10
8.71846e-11
2.73071e-11
6.37611e-12
1.05859e-12
1.31186e-13
1.28929e-14
1.05561e-15
7.62069e-17
5.04693e-18
2.96937e-19
1.53645e-20
6.83005e-22
2.44399e-23
6.5155e-25
0.00651816
0.0103809
0.0103936
0.0102505
5.21548e-05
3.55608e-05
3.65475e-05
2.17522e-05
0.00181905
0.000269262
0.00082918
0.000920699
0.00530917
0.00530925
0.00530296
0.00393658
0.00522126
0.00398599
0.00207669
0.000883372
0.000545517
0.000458309
0.000385682
0.000422782
0.000205948
0.000203235
0.000227711
0.000983707
0.00243506
0.0048042
0.0104191
0.0194019
0.0193014
0.019329
0.01913
0.0176579
0.0088128
0.00115261
0.000277731
6.92636e-11
8.95496e-11
8.01683e-11
1.62057e-22
-2.11123e-25
6.16958e-06
8.33368e-06
6.3863e-06
2.07009e-06
2.02042e-05
2.32351e-05
2.36135e-05
2.36108e-05
6.32774e-10
2.64361e-07
3.3918e-06
3.50831e-06
4.93206e-10
4.70581e-10
2.56629e-09
1.87025e-09
1.85615e-09
3.16763e-09
3.94671e-09
4.25588e-09
1.96092e-09
1.83069e-09
2.15136e-09
2.78434e-09
1.14861e-09
1.17383e-09
1.00155e-09
1.08666e-09
6.31489e-10
6.04852e-10
6.54732e-10
6.43046e-10
3.04011e-10
2.89431e-10
2.55519e-10
2.5593e-10
9.93573e-11
8.34589e-11
8.01888e-11
7.02612e-11
3.19463e-11
2.84611e-11
2.31252e-11
2.12836e-11
8.6165e-12
6.97583e-12
6.93042e-12
6.4506e-12
2.04642e-12
1.95358e-12
1.76352e-12
1.93594e-12
4.13117e-13
3.51e-13
3.95356e-13
4.318e-13
7.49133e-14
7.7472e-14
7.59631e-14
9.79392e-14
9.97742e-15
9.28778e-15
1.25478e-14
1.5395e-14
1.30627e-15
1.53279e-15
1.53584e-15
2.40625e-15
1.30817e-16
1.27831e-16
2.0679e-16
2.72424e-16
1.38579e-17
1.80458e-17
1.85182e-17
3.69321e-17
1.57699e-18
1.57762e-18
3.15736e-18
4.78063e-18
7.05483e-19
3.41474e-19
4.1952e-19
1.69856e-18
8.43426e-19
1.21876e-19
1.67745e-19
4.89076e-19
1.04961e-18
1.23917e-19
4.12337e-20
2.1911e-19
1.08758e-18
1.37912e-19
2.12391e-20
4.62035e-20
7.52701e-19
7.55453e-20
3.73736e-21
1.31241e-20
1.99479e-19
2.621e-20
1.68483e-21
2.3193e-21
4.88341e-20
3.53614e-21
9.90768e-23
3.66702e-22
7.5161e-21
4.48391e-22
1.52192e-23
3.64109e-23
2.74384e-22
3.94432e-24
9.94603e-25
4.33199e-24
6.4549e-24
8.45637e-26
1.14666e-25
4.82312e-25
2.56187e-26
3.18078e-27
1.20325e-26
4.33451e-26
0.00487846
0.00143456
0.000576721
1.10731e-05
1.26055e-05
3.37643e-06
4.35792e-06
8.8998e-06
0.000603424
0.00317916
0.017046
0.0137796
0.0136828
0.014026
0.0309664
0.0371062
0.00563772
0.00310168
0.00896669
2.16144e-05
2.15298e-05
3.04763e-05
0.000148217
0.00026082
0.000230753
0.000100255
2.79398e-05
2.95528e-06
0.000959336
0.0130459
0.0313218
0.035517
0.0355214
0.0318358
0.004334
0.00255067
0.00327686
0.0105876
0.000606258
0.000359849
0.0011738
0.00432866
0.00657485
0.00487212
0.000478125
1.61976e-06
1.61986e-06
7.02203e-06
0.00152225
0.00817201
0.0215757
0.0210638
0.00666798
0.0025245
0.00268498
0.0132783
0.020045
0.0016765
0.00258941
0.00751268
0.00776408
0.00776406
0.00732267
0.000418959
1.62008e-06
1.72842e-06
1.72522e-06
1.90512e-06
0.000855757
0.00265378
0.00665046
0.00526503
0.00253212
0.0108992
0.020057
0.0200503
0.00126769
0.00243881
0.00655248
0.00775223
0.0068031
0.00159482
5.01564e-05
0.000141629
0.00111091
0.00198401
0.00178076
0.00123087
0.00138917
0.00335206
0.00961617
0.00545219
0.0146055
0.0200315
0.0180572
0.00153536
0.00256767
0.00415162
0.0031513
0.000483477
6.67403e-05
6.74176e-05
6.73828e-05
0.00474596
0.0130216
0.0130241
0.0128976
0.00746388
0.00912903
0.00962441
0.0058669
0.00940778
0.00640008
0.0012149
0.00662276
0.0170191
0.0197002
0.0143336
0.000775196
6.63083e-05
0.00103955
0.00421448
0.00562736
0.0101275
0.012995
0.00949623
0.00419692
0.00447676
0.00559988
0.0055681
0.0016973
5.64204e-05
2.09769e-06
0.0196967
0.0197001
0.0196968
0.0171516
0.00331735
6.67711e-05
0.00468343
0.00902732
0.00893038
0.00643839
0.0045072
0.00371166
0.00378141
0.00234328
0.000874815
0.000268993
2.07732e-06
2.47015e-06
1.94005e-06
0.0164187
0.0122082
0.00426356
0.00171584
0.00195048
0.00194333
0.00120021
0.000458639
6.94276e-07
7.47026e-07
1.07173e-06
4.59885e-09
5.27032e-09
-2.49183e-25
-3.82465e-27
2.3983e-25
1.8282e-07
2.07225e-06
6.74269e-07
-8.958e-12
-1.70508e-12
-1.05527e-14
1.04153e-23
2.73429e-22
1.86441e-25
9.69527e-08
1.44985e-06
3.2106e-06
4.28764e-06
5.50431e-06
4.8376e-06
2.6257e-06
1.44893e-06
3.95151e-28
2.44455e-08
1.10476e-07
5.0445e-07
3.1115e-08
-5.96518e-25
1.99326e-12
1.95194e-11
2.38524e-09
2.39364e-08
2.15598e-07
2.80292e-07
2.05777e-06
3.68478e-06
1.13051e-05
1.18366e-05
1.1832e-05
1.01291e-05
3.52728e-06
-6.41057e-11
7.12395e-08
1.01994e-08
1.10192e-11
7.40542e-12
1.18967e-06
1.97584e-12
3.08704e-08
1.61606e-07
7.70545e-07
1.73062e-06
1.37292e-06
1.14897e-06
3.16826e-06
3.31524e-06
6.08498e-06
4.95958e-06
2.00398e-06
6.39749e-07
9.54323e-08
7.41538e-08
1.60685e-08
1.14651e-09
1.95638e-09
1.80913e-05
9.12807e-07
2.155e-06
2.47191e-06
3.44254e-06
5.84121e-06
5.84124e-06
2.57466e-06
2.73952e-06
7.21835e-06
3.15826e-06
2.09786e-07
2.11053e-07
6.63277e-07
2.27922e-07
4.73117e-07
2.96559e-08
1.86154e-09
2.43466e-09
2.55983e-06
1.0359e-05
1.0359e-05
3.72771e-06
4.49827e-06
5.75964e-06
4.98844e-06
1.64055e-06
3.01588e-06
2.10518e-05
2.25239e-05
5.66349e-06
3.12792e-06
1.63337e-05
1.12825e-05
9.99621e-07
1.88601e-10
1.89301e-09
2.4341e-09
1.87885e-11
-7.70016e-12
-6.44852e-12
-5.30118e-12
-1.28886e-12
2.52916e-07
2.5646e-08
1.74547e-10
7.50583e-07
1.74132e-05
2.30484e-05
2.32786e-05
2.30647e-05
2.24459e-05
1.9887e-05
1.11582e-06
1.88497e-10
9.6799e-10
2.53248e-09
3.42497e-09
2.08677e-09
1.83531e-09
2.64376e-09
2.12395e-09
6.10777e-10
3.88753e-10
1.86728e-10
-1.78234e-11
-1.08628e-10
1.4378e-05
2.32748e-05
2.32755e-05
2.00079e-05
4.77868e-06
1.88518e-10
1.8858e-10
6.00272e-10
2.80958e-09
3.06565e-09
2.27262e-09
2.0029e-09
3.47053e-09
3.6767e-09
2.71627e-09
1.5323e-09
1.20933e-09
3.16029e-09
3.43148e-09
1.50875e-08
1.07175e-05
1.11971e-05
2.30319e-09
2.20139e-10
2.23063e-10
2.04135e-10
8.17009e-10
3.2444e-09
1.29848e-09
1.04424e-09
9.33701e-10
1.64179e-09
2.95999e-09
2.60849e-09
1.27651e-09
1.13867e-09
3.3975e-09
9.96223e-10
2.80345e-11
2.79036e-11
2.78738e-11
7.54072e-10
1.26795e-09
3.70802e-10
2.58709e-10
9.41543e-10
3.35629e-09
5.62628e-10
3.57646e-10
2.98501e-10
3.12477e-10
6.57869e-10
4.84416e-10
3.17381e-10
2.42269e-10
1.42997e-10
3.00494e-11
3.0028e-11
2.788e-11
1.74021e-10
7.06491e-09
1.90269e-09
2.36142e-10
2.39477e-10
1.02891e-09
3.3713e-09
2.06296e-10
1.47375e-10
1.35445e-10
1.26995e-10
1.07737e-10
1.13382e-10
1.11385e-10
7.90323e-11
5.82562e-11
4.98517e-11
3.94458e-11
3.35683e-11
4.03836e-11
3.82636e-10
2.53271e-10
1.41472e-10
1.7039e-10
1.09955e-09
3.40285e-09
6.15682e-11
6.21329e-11
7.1594e-11
7.66301e-11
8.84295e-11
8.79028e-11
8.04815e-11
7.00772e-11
6.80827e-11
5.75658e-11
4.39591e-11
3.81193e-11
3.53847e-11
2.83697e-11
5.53319e-11
7.11148e-11
1.20766e-10
1.34711e-09
3.40285e-09
2.20191e-11
2.58926e-11
3.19382e-11
3.78036e-11
3.97112e-11
3.93093e-11
3.84239e-11
4.15715e-11
4.22e-11
4.32139e-11
3.75958e-11
3.2453e-11
2.82296e-11
2.75662e-11
2.89672e-11
4.27139e-11
1.02841e-10
1.62778e-09
3.22104e-09
8.56108e-12
1.08749e-11
1.31387e-11
1.48467e-11
1.65185e-11
1.66439e-11
1.67368e-11
2.01222e-11
2.24141e-11
2.34568e-11
2.15606e-11
1.80695e-11
1.48415e-11
1.34513e-11
1.5763e-11
3.12341e-11
9.84261e-11
1.77202e-09
2.45883e-09
2.64071e-12
3.72289e-12
4.84927e-12
5.45792e-12
5.79477e-12
6.23297e-12
7.08207e-12
7.06882e-12
7.52608e-12
7.47085e-12
7.66237e-12
6.67767e-12
6.14734e-12
7.2594e-12
1.15889e-11
2.89172e-11
1.09745e-10
1.82442e-09
2.06149e-09
8.07413e-13
1.21596e-12
1.61752e-12
1.89187e-12
1.93284e-12
2.08298e-12
2.20666e-12
2.50266e-12
2.55197e-12
2.74092e-12
2.3973e-12
2.94318e-12
3.59482e-12
5.63335e-12
1.11191e-11
3.43435e-11
1.47223e-10
1.89277e-09
1.91614e-09
1.64405e-13
3.29917e-13
4.66935e-13
5.77772e-13
6.33781e-13
6.68902e-13
7.28941e-13
7.33666e-13
7.92758e-13
9.87423e-13
1.12046e-12
1.85319e-12
2.85747e-12
5.82283e-12
1.45934e-11
4.96227e-11
2.85981e-10
1.90675e-09
1.85368e-09
4.21691e-14
7.60065e-14
1.16566e-13
1.53572e-13
1.91635e-13
2.1206e-13
2.31142e-13
2.70795e-13
3.50666e-13
5.3523e-13
9.39195e-13
1.81493e-12
3.33036e-12
8.88985e-12
1.9725e-11
6.63175e-11
4.5972e-10
1.92959e-09
1.68763e-09
5.30936e-15
1.33627e-14
2.33078e-14
3.51502e-14
4.74976e-14
6.32868e-14
8.1835e-14
1.21444e-13
2.18938e-13
4.54395e-13
1.01171e-12
2.31929e-12
5.67014e-12
1.31386e-11
3.79631e-11
1.17732e-10
5.75248e-10
1.95192e-09
1.42805e-09
1.0249e-15
2.28512e-15
4.31299e-15
7.53803e-15
1.27622e-14
2.16836e-14
4.099e-14
8.979e-14
2.14617e-13
5.4031e-13
1.30932e-12
3.10371e-12
7.67871e-12
2.09792e-11
6.99306e-11
2.1709e-10
7.57728e-10
1.95208e-09
1.0416e-09
1.37465e-16
3.97538e-16
9.24207e-16
2.13208e-15
5.02714e-15
1.25179e-14
3.21352e-14
8.556e-14
2.25513e-13
5.68223e-13
1.39861e-12
3.47251e-12
8.49192e-12
2.4319e-11
9.57138e-11
2.93186e-10
8.66574e-10
1.72455e-09
7.83536e-10
3.74644e-17
1.24717e-16
3.7606e-16
1.16244e-15
3.47182e-15
1.01035e-14
2.84268e-14
7.92521e-14
2.10013e-13
5.33874e-13
1.33419e-12
3.36957e-12
8.47696e-12
2.47811e-11
1.02374e-10
3.34503e-10
8.82303e-10
1.20369e-09
6.40575e-10
1.53734e-17
6.32522e-17
2.25141e-16
7.77556e-16
2.54739e-15
7.72925e-15
2.22794e-14
6.27763e-14
1.68045e-13
4.32957e-13
1.1051e-12
2.85086e-12
7.65985e-12
2.10755e-11
8.80329e-11
3.38455e-10
7.76474e-10
9.61642e-10
5.02272e-10
7.0133e-18
3.07573e-17
1.17791e-16
4.36081e-16
1.5248e-15
4.79028e-15
1.41598e-14
4.06524e-14
1.10586e-13
2.92385e-13
7.76271e-13
2.07374e-12
5.95985e-12
1.70639e-11
5.00519e-11
2.28839e-10
6.08286e-10
7.0947e-10
2.8284e-10
2.35207e-18
1.16459e-17
4.92221e-17
1.89168e-16
6.92323e-16
2.33807e-15
7.05619e-15
2.09547e-14
5.85654e-14
1.62432e-13
4.45286e-13
1.26882e-12
3.86079e-12
1.19437e-11
2.61235e-11
1.00517e-10
4.08801e-10
4.91259e-10
1.58378e-10
6.07393e-19
3.28902e-18
1.5523e-17
6.67969e-17
2.66054e-16
9.16179e-16
2.82627e-15
8.43807e-15
2.48271e-14
7.36194e-14
2.22256e-13
6.92912e-13
2.22819e-12
7.1804e-12
1.79653e-11
4.12369e-11
1.48701e-10
2.90717e-10
8.95508e-11
1.2568e-19
7.41093e-19
3.78851e-18
1.78503e-17
7.3923e-17
2.64292e-16
8.5351e-16
2.81283e-15
8.95849e-15
2.89285e-14
9.61465e-14
3.3537e-13
1.16933e-12
3.82967e-12
1.02804e-11
2.00291e-11
4.86397e-11
1.19704e-10
4.54001e-11
2.09655e-20
1.25763e-19
6.99242e-19
3.43766e-18
1.45806e-17
5.34057e-17
1.91028e-16
6.8763e-16
2.40205e-15
8.87943e-15
3.38593e-14
1.36335e-13
5.3259e-13
1.80365e-12
5.04055e-12
1.10858e-11
2.15326e-11
4.5216e-11
2.82984e-11
2.42659e-21
1.63877e-20
9.11574e-20
4.52279e-19
1.98988e-18
7.78738e-18
3.12685e-17
1.22066e-16
5.04718e-16
2.15985e-15
9.63511e-15
4.66801e-14
2.08972e-13
7.2905e-13
2.07382e-12
4.83369e-12
9.28671e-12
1.69703e-11
1.21961e-11
2.71099e-22
1.54461e-21
7.12785e-21
3.05347e-20
1.30934e-19
5.35469e-19
2.61406e-18
1.42955e-17
7.43092e-17
3.98117e-16
2.06149e-15
1.22699e-14
6.23644e-14
2.40571e-13
6.82228e-13
1.66096e-12
3.61598e-12
5.07503e-12
6.9501e-12
2.27545e-23
1.06791e-22
4.50368e-22
2.04863e-21
1.04406e-20
5.64412e-20
3.25094e-19
1.98309e-18
1.28275e-17
8.25145e-17
5.25626e-16
3.45431e-15
1.89969e-14
7.46658e-14
2.23002e-13
5.11273e-13
8.68248e-13
2.31309e-12
2.69058e-12
1.63717e-24
5.8565e-24
2.01554e-23
9.4161e-23
5.92878e-22
4.19279e-21
3.12515e-20
2.30717e-19
1.8403e-18
1.42556e-17
1.07004e-16
6.90894e-16
3.92361e-15
1.62181e-14
5.19344e-14
1.29186e-13
2.14719e-13
5.53539e-13
5.0948e-13
9.65828e-26
2.39678e-25
6.69631e-25
3.4427e-24
2.71508e-23
2.32472e-22
2.18246e-21
2.08244e-20
1.95103e-19
1.59502e-18
1.21619e-17
7.63734e-17
4.43318e-16
1.96259e-15
6.57258e-15
1.67596e-14
3.29768e-14
5.32334e-14
4.22294e-15
)
;

boundaryField
{
    leftWall
    {
        type            zeroGradient;
    }
    rightWall
    {
        type            zeroGradient;
    }
    lowerWall
    {
        type            zeroGradient;
    }
    atmosphere
    {
        type            inletOutlet;
        inletValue      uniform 0;
        value           nonuniform List<scalar> 
46
(
6.08012e-10
9.5662e-10
1.33284e-09
1.80052e-09
2.42949e-09
1.84735e-09
9.71016e-10
4.20835e-10
2.10219e-10
8.71846e-11
2.73071e-11
6.37611e-12
1.05859e-12
1.31186e-13
1.28929e-14
1.05561e-15
0
0
0
0
0
0
0
0
0
0
0
0
0
0
0
0
0
0
0
0
0
0
0
0
0
0
0
0
0
0
)
;
    }
    defaultFaces
    {
        type            empty;
    }
}


// ************************************************************************* //
