/*--------------------------------*- C++ -*----------------------------------*\
| =========                 |                                                 |
| \\      /  F ield         | OpenFOAM: The Open Source CFD Toolbox           |
|  \\    /   O peration     | Version:  2312                                  |
|   \\  /    A nd           | Website:  www.openfoam.com                      |
|    \\/     M anipulation  |                                                 |
\*---------------------------------------------------------------------------*/
FoamFile
{
    version     2.0;
    format      ascii;
    arch        "LSB;label=32;scalar=64";
    class       volScalarField;
    location    "2.1";
    object      alpha.water;
}
// * * * * * * * * * * * * * * * * * * * * * * * * * * * * * * * * * * * * * //

dimensions      [0 0 0 0 0 0 0];

internalField   nonuniform List<scalar> 
2268
(
7.68016e-10
4.31693e-10
1.27779e-10
4.74563e-11
3.22405e-11
2.83596e-11
2.69766e-11
2.68287e-11
2.73419e-11
2.85616e-11
3.06218e-11
3.43942e-11
4.00121e-11
4.76333e-11
5.89887e-11
7.84268e-11
1.10909e-10
1.68207e-10
2.60338e-10
4.18903e-10
6.85913e-10
9.2499e-10
1.10684e-09
8.83851e-10
5.3603e-10
1.78057e-10
8.02544e-11
5.63288e-11
4.31995e-11
4.10296e-11
4.11041e-11
4.18066e-11
4.21792e-11
4.29814e-11
5.20724e-11
7.13608e-11
9.19647e-11
1.14972e-10
1.57672e-10
2.34268e-10
3.81484e-10
6.80769e-10
1.17001e-09
1.88467e-09
2.20811e-09
2.26334e-09
7.61514e-10
5.24576e-10
2.16323e-10
1.09164e-10
8.10893e-11
7.02343e-11
6.2892e-11
5.59908e-11
4.90734e-11
4.33278e-11
4.32035e-11
6.55276e-11
1.77425e-10
2.90553e-10
3.0499e-10
3.56589e-10
4.52514e-10
3.77736e-10
5.84214e-10
9.5892e-10
1.30908e-09
2.22521e-09
2.43802e-09
2.73598e-10
3.57753e-10
1.6164e-10
9.70796e-11
8.42026e-11
8.60496e-11
7.51371e-11
4.63965e-11
2.53072e-11
2.10902e-11
2.21659e-11
1.91796e-11
1.92169e-11
1.90295e-11
1.91237e-11
1.88719e-11
1.89684e-11
1.88719e-11
1.91237e-11
1.90295e-11
1.92794e-11
2.51286e-10
1.16929e-09
2.74654e-09
8.36301e-11
5.24843e-11
3.53593e-11
3.18363e-11
2.06494e-11
8.7505e-23
1.54446e-15
0
1.54446e-15
-2.66569e-22
0.00289588
0.0223157
0.0433342
0.056374
0.0574628
0.0477589
0.0359135
0.0275852
0.0193411
0.00308742
5.38638e-11
5.47398e-11
2.20978e-05
1.82224e-11
4.95081e-13
1.09967e-16
1.09638e-16
1.09955e-16
0.00283424
0.0244068
0.0840898
0.207693
0.373679
0.540782
0.654625
0.725115
0.755789
0.757484
0.733008
0.698298
0.663075
0.636391
0.616961
0.537559
0.41572
2.32056e-15
3.18076e-15
1.40311e-11
4.75561e-05
0.0900452
0.291899
0.522802
0.702086
0.840752
0.951883
0.995133
0.998646
0.999312
0.999297
0.999269
0.999134
0.99871
0.998149
0.992022
0.988929
0.967284
0.9474
0.948035
0.00103191
0.0429934
0.243871
0.583005
0.847119
0.976264
0.999078
0.999293
0.999275
0.999293
0.999312
0.999312
0.999312
0.999312
0.999312
0.999309
0.999305
0.998922
0.988398
0.853256
0.613719
0.595372
0.725153
0.0616073
0.0317045
0.0317033
0.0359053
0.0265313
0.0260156
0.0258719
0.0239301
0.0213164
0.0213039
0.0212905
0.0267019
0.0266948
0.0267004
0.0257977
0.0236613
0.0151103
0.0117869
0.0118044
0.0692112
0.0318951
0.0376934
0.0587504
0.0588293
0.0311012
0.0258942
0.0386138
0.1394
0.145251
0.0158011
0.013163
0.0128876
0.0143278
0.0327417
0.0327406
0.0579635
0.170082
0.0635057
0.0398322
0.0403671
0.0492212
0.0408894
0.0581254
0.138338
0.207119
0.184083
0.140043
0.206162
0.258764
0.235895
0.0941489
0.0177155
0.0105273
0.0891937
0.535744
0.755388
0.542041
0.310152
0.414311
0.4537
0.483349
0.537758
0.586496
0.637032
0.647266
0.589967
0.581282
0.522741
0.39072
0.267839
0.0223528
0.0235757
0.570257
0.910167
0.90941
0.586089
0.674063
0.678428
0.660443
0.546676
0.676649
0.676011
0.649214
0.690099
0.714249
0.714321
0.714173
0.495368
0.14513
0.027209
0.344702
0.909614
0.909925
0.896197
0.651023
0.674149
0.642836
0.411395
0.410985
0.51772
0.472195
0.280898
0.244458
0.31699
0.472075
0.483726
0.294825
0.140627
0.252228
0.825484
0.90966
0.827478
0.810857
0.878581
0.592425
0.513297
0.503962
0.428132
0.402447
0.457891
0.628345
0.240979
0.123945
0.156855
0.221257
0.221713
0.480691
0.731372
0.87704
0.823663
0.658614
0.696319
0.891739
0.592537
0.666824
0.613855
0.55968
0.781592
0.991367
0.995186
0.465274
0.113805
0.119835
0.232061
0.516261
0.87765
0.877812
0.876758
0.643569
0.588612
0.746319
0.896851
0.708286
0.866212
0.960679
0.99054
0.990816
0.990817
0.980326
0.969735
0.974552
0.980181
0.982767
0.989971
0.999312
0.999312
0.998058
0.997046
0.998647
0.99842
0.929256
0.555746
0.499907
0.575563
0.980378
0.867383
0.970468
0.970511
0.844057
0.659725
0.517469
0.377128
0.302732
0.330776
0.430481
0.56665
0.710385
0.806356
0.886735
0.927968
0.980976
0.987421
0.993284
0.883938
0.588182
0.739432
0.996233
0.996189
0.432166
0.559292
0.420815
0.204258
0.0794526
0.0108129
3.24411e-06
-2.24849e-20
-1.97922e-19
0.000495364
0.0131857
0.0637117
0.193671
0.309266
0.360587
0.694184
0.984141
0.981589
0.888072
0.852189
0.965625
0.986058
0.976021
0.00374557
0.0124219
0.00159754
2.69719e-05
2.71362e-05
3.64867e-05
2.96065e-06
-9.73973e-24
-6.50986e-18
8.57728e-06
1.95974e-21
-1.2988e-07
-4.37232e-19
4.57839e-20
0.0010084
0.0314611
0.361008
0.823621
0.937132
0.963714
0.963758
0.855327
0.588235
1.98652e-05
6.29915e-06
6.29894e-06
3.37497e-05
0.000210779
0.00023252
0.000136824
1.58393e-05
1.86608e-09
1.45076e-08
1.71666e-11
0.000111651
0.000170839
5.00384e-05
5.09066e-05
5.17115e-05
5.35163e-05
0.0892917
0.48125
0.78755
0.784059
0.263928
6.5285e-07
3.64359e-05
7.36726e-06
6.61631e-06
0.000211492
0.00068411
0.00125935
0.00085645
0.000116777
1.64307e-09
6.67668e-05
0.00180132
0.00357064
0.00281862
0.00033973
5.37911e-05
5.40903e-05
5.54398e-05
5.6437e-05
0.0158515
0.0627957
0.0335398
9.94187e-06
1.01434e-05
7.1365e-06
7.14043e-06
0.000943446
0.00325578
0.00325141
0.000999367
3.51846e-07
0.00025063
0.00168167
0.00235711
0.00362062
0.00361835
0.00120359
0.000158506
5.60093e-05
5.58542e-05
5.64533e-05
5.72973e-05
5.75055e-05
5.94735e-05
0.000478271
0.000858808
0.000269636
0.00265435
0.00710295
0.00168425
1.08212e-05
0.00025971
4.09061e-05
3.5892e-07
0.000159088
0.000658815
0.00103457
0.00121622
0.000646524
0.000295421
0.000199046
0.000382226
0.000420252
0.000270626
9.11196e-05
0.0010657
0.00224106
0.00220811
0.00046091
0.000454491
0.010171
0.0125662
0.00124238
1.16254e-08
1.40707e-08
1.30051e-07
4.86162e-06
0.000472367
0.00125795
0.00150382
0.00124491
0.00112891
0.00115377
0.00136049
0.0015851
0.00281674
0.00398591
0.00316894
0.000917211
0.000915405
0.00095162
0.00222871
0.00794889
0.0171412
0.0387813
1.16254e-08
1.10696e-08
1.16602e-08
2.46948e-08
0.000245963
0.00240057
0.00300204
0.00300016
0.00300454
0.00300406
0.00154337
0.000605796
0.00147712
0.00246156
0.00634336
0.00385579
0.000915395
0.00136561
0.00778258
0.0099242
0.00987617
0.0110481
0.0420184
0.00695506
1.09256e-08
1.78778e-05
4.26111e-05
3.77506e-05
1.80758e-05
5.35166e-05
0.000113271
0.00014536
0.000123135
8.63984e-05
8.59442e-05
0.000154635
0.00268827
0.0073621
0.00735553
0.00731543
0.00270526
0.000391958
0.000203136
0.000182877
0.00715923
0.0419515
0.00727826
9.37898e-09
4.67339e-06
5.90573e-06
3.56213e-07
1.13976e-06
3.70868e-06
1.28521e-05
0.000111628
0.000160102
0.0001598
0.000139043
8.07594e-05
3.34584e-05
9.55477e-06
7.24055e-06
2.07764e-06
6.45777e-10
-3.42228e-11
-8.18732e-11
-4.50351e-19
0.00681901
0.0419493
0.00301039
9.31193e-09
3.27107e-07
2.59024e-08
2.59155e-07
8.01022e-07
2.49386e-06
4.62586e-06
4.54347e-06
1.14467e-05
9.06973e-05
0.000147558
0.000145334
6.74615e-05
6.84409e-05
9.31849e-05
6.74041e-05
2.38022e-05
8.38305e-07
6.63213e-06
1.25055e-05
0.0204061
0.0268903
0.000133554
8.50675e-09
1.76571e-07
2.57859e-08
3.13838e-08
7.85419e-08
2.84868e-06
6.46411e-06
6.43242e-06
9.13057e-07
1.64781e-07
1.73898e-07
1.78784e-07
3.7373e-07
5.15899e-05
0.00016407
0.000164648
8.21549e-05
9.53764e-07
2.84936e-06
1.25156e-05
0.0419755
0.00402317
1.57295e-07
2.01305e-08
2.29894e-08
1.92592e-08
1.91393e-08
6.81805e-08
3.29871e-07
1.95733e-06
6.41539e-06
7.18697e-06
5.40203e-06
3.24711e-07
2.866e-07
3.50787e-07
9.89131e-08
9.83398e-08
2.14542e-05
2.63246e-07
3.00025e-05
1.57185e-06
5.56714e-09
0.0419757
0.000308122
2.20491e-08
2.03402e-08
2.45753e-07
1.42515e-07
2.22657e-08
3.48231e-07
1.07807e-06
5.98205e-07
4.34443e-07
6.07415e-06
5.28928e-06
4.0472e-07
1.14572e-07
3.15432e-07
3.19875e-07
9.90735e-08
7.60733e-08
8.44423e-08
4.39368e-08
4.90608e-07
4.50552e-07
0.0419759
0.000267289
4.8714e-08
9.87357e-07
3.71118e-07
1.34795e-07
6.09861e-08
1.12212e-06
1.2052e-06
7.21148e-07
1.93688e-07
9.98757e-10
1.54364e-10
2.35724e-08
2.27539e-08
4.56148e-08
1.23816e-08
2.63035e-08
6.05298e-08
5.40856e-08
3.33829e-08
1.00099e-09
9.64671e-10
0.0231501
0.000202358
6.24059e-08
1.66191e-06
3.35412e-07
2.48374e-08
1.0537e-07
1.13447e-06
1.0034e-06
1.29469e-07
1.51637e-08
1.06403e-09
1.6231e-10
1.08098e-09
1.98188e-09
6.10721e-10
6.11573e-10
2.81295e-10
6.95409e-10
4.38836e-09
5.72621e-09
7.37342e-09
6.25062e-09
1.20334e-06
1.60061e-05
2.74002e-06
1.07267e-06
2.74674e-08
2.32436e-08
1.55597e-07
2.48366e-07
1.01904e-07
3.50089e-09
1.25066e-10
1.25081e-10
4.63548e-10
1.38419e-09
1.60919e-09
9.901e-10
4.439e-10
2.81115e-10
2.78286e-10
4.30083e-10
1.73985e-09
4.3289e-09
4.84315e-09
1.16607e-06
1.5323e-06
1.53427e-06
1.20528e-07
2.53452e-08
2.81582e-08
2.51099e-08
1.10872e-09
1.66553e-10
1.65262e-10
1.57892e-10
1.73551e-10
4.38591e-10
5.94682e-10
4.70286e-10
3.22845e-10
2.5539e-10
2.70681e-10
3.55972e-10
1.13291e-09
1.81028e-09
2.31015e-09
1.95661e-09
8.91247e-07
7.11775e-07
1.78929e-07
3.44386e-08
2.78606e-08
2.56513e-08
1.34933e-08
1.21684e-09
1.6753e-10
1.72423e-10
1.5332e-10
1.69603e-10
2.70807e-10
2.68846e-10
2.23924e-10
2.01412e-10
2.15104e-10
2.81421e-10
3.73101e-10
5.97447e-10
7.31738e-10
5.77969e-10
4.78495e-10
9.70743e-08
1.81973e-08
2.3732e-08
1.93055e-08
2.39391e-08
1.79448e-08
2.61077e-09
1.81098e-10
1.6922e-10
1.52832e-10
1.32859e-10
1.36346e-10
1.51647e-10
1.4075e-10
1.32011e-10
1.35814e-10
1.56827e-10
1.90299e-10
2.26012e-10
2.34117e-10
2.1465e-10
1.8804e-10
1.21071e-10
3.49346e-08
1.76235e-08
7.09525e-09
1.30345e-08
1.14404e-08
2.49167e-09
2.1502e-10
1.77077e-10
1.52933e-10
1.29731e-10
1.07951e-10
9.77498e-11
8.93536e-11
8.07335e-11
7.80347e-11
8.00798e-11
8.58087e-11
9.21764e-11
9.25964e-11
8.81513e-11
7.26987e-11
4.17015e-11
2.83648e-11
8.0468e-08
2.31113e-08
3.28569e-09
2.63905e-09
7.81395e-10
2.71912e-10
2.10472e-10
1.69754e-10
1.41151e-10
1.14176e-10
8.98113e-11
7.18961e-11
5.78007e-11
4.81259e-11
4.25844e-11
3.88384e-11
3.62639e-11
3.41275e-11
3.06275e-11
2.36237e-11
1.55388e-11
1.00648e-11
6.31299e-12
1.56014e-07
1.84446e-08
1.1457e-09
6.19576e-10
3.7859e-10
2.80351e-10
2.15093e-10
1.7628e-10
1.44389e-10
1.12508e-10
8.35426e-11
6.02943e-11
4.27315e-11
3.07881e-11
2.28566e-11
1.73416e-11
1.35567e-11
1.08081e-11
8.34369e-12
5.54729e-12
3.12499e-12
1.63804e-12
1.36231e-12
1.75238e-07
1.25463e-08
7.47602e-10
5.73507e-10
3.8402e-10
3.02053e-10
2.59392e-10
2.20187e-10
1.75795e-10
1.31425e-10
9.04348e-11
5.9735e-11
3.76408e-11
2.3437e-11
1.45999e-11
9.09794e-12
5.73553e-12
3.64803e-12
2.2704e-12
1.363e-12
6.26681e-13
3.20928e-13
2.78105e-13
1.81696e-07
6.65997e-09
7.59668e-10
5.98223e-10
4.42767e-10
4.37022e-10
3.87554e-10
2.95828e-10
2.25598e-10
1.66324e-10
1.11806e-10
6.75024e-11
3.88168e-11
2.16508e-11
1.18764e-11
6.39476e-12
3.40533e-12
1.79267e-12
9.31034e-13
4.8113e-13
2.17696e-13
8.09378e-14
5.83867e-14
1.82187e-07
3.56872e-09
9.19423e-10
7.47997e-10
5.74273e-10
6.58109e-10
5.98758e-10
3.99533e-10
3.0367e-10
2.20159e-10
1.41896e-10
8.37862e-11
4.50429e-11
2.298e-11
1.14622e-11
5.54988e-12
2.6351e-12
1.23001e-12
5.7665e-13
2.34626e-13
1.01587e-13
4.07741e-14
1.75735e-14
1.74995e-07
2.26286e-09
1.05814e-09
9.2929e-10
8.11902e-10
1.03529e-09
8.1827e-10
5.44718e-10
4.17507e-10
3.07426e-10
1.96941e-10
1.11182e-10
5.73502e-11
2.77217e-11
1.27595e-11
5.62775e-12
2.3964e-12
9.92559e-13
4.09878e-13
1.66007e-13
6.67799e-14
1.52791e-14
6.84873e-15
7.11473e-08
1.37204e-09
1.13093e-09
1.08112e-09
1.2724e-09
1.48541e-09
1.13128e-09
7.38486e-10
5.61117e-10
4.32935e-10
2.85613e-10
1.63874e-10
8.47546e-11
3.99598e-11
1.76802e-11
7.24329e-12
2.76329e-12
1.0001e-12
3.57781e-13
1.32269e-13
3.61922e-14
1.13717e-14
4.17958e-15
6.79659e-09
2.44629e-09
1.21162e-09
1.18366e-09
1.54536e-09
1.57703e-09
1.3802e-09
1.05226e-09
8.26657e-10
6.66961e-10
4.7262e-10
2.8011e-10
1.44355e-10
7.0282e-11
3.22602e-11
1.27304e-11
4.64072e-12
1.5002e-12
4.6534e-13
1.4241e-13
3.87219e-14
6.61409e-15
2.19023e-15
5.14441e-09
9.34456e-09
1.70495e-09
1.16727e-09
1.51757e-09
1.42685e-09
1.14823e-09
1.13876e-09
1.23708e-09
1.06872e-09
7.38497e-10
4.5055e-10
2.62112e-10
1.35931e-10
6.30424e-11
2.67316e-11
9.29933e-12
2.80148e-12
8.29718e-13
2.29984e-13
4.39831e-14
9.40829e-15
1.80193e-15
5.19332e-09
3.24851e-08
1.07834e-09
7.97755e-10
9.23346e-10
7.59167e-10
5.41009e-10
5.37412e-10
2.13753e-09
1.72354e-09
1.18523e-09
7.35427e-10
4.32396e-10
2.22857e-10
1.01725e-10
4.30797e-11
1.54957e-11
5.08122e-12
1.35971e-12
3.56573e-13
8.56417e-14
7.79459e-15
1.39477e-15
1.11027e-06
3.79192e-08
4.04431e-10
4.0527e-10
4.12291e-10
4.02197e-10
4.02292e-10
7.10408e-09
4.15594e-09
2.2813e-09
2.13188e-09
1.30326e-09
6.80345e-10
3.25375e-10
1.43177e-10
5.84572e-11
2.12697e-11
6.60617e-12
1.87101e-12
4.89338e-13
7.67768e-14
1.1971e-14
1.30599e-15
1.33874e-06
2.68821e-07
7.34544e-08
1.32107e-09
4.02203e-10
4.02294e-10
7.7963e-08
4.46815e-08
4.37321e-09
4.13444e-09
3.8442e-09
1.71168e-09
7.86948e-10
3.7257e-10
1.64554e-10
6.69662e-11
2.414e-11
7.52079e-12
2.05207e-12
4.91695e-13
1.13894e-13
8.13278e-15
1.13893e-15
1.38097e-06
1.37253e-06
1.73761e-07
9.19148e-08
7.70133e-08
3.86213e-07
4.18822e-07
7.7702e-08
1.01723e-08
7.69857e-09
3.9694e-09
1.33351e-09
7.1919e-10
3.55609e-10
1.6137e-10
6.53088e-11
2.34746e-11
7.11148e-12
1.87225e-12
4.0668e-13
7.98274e-14
1.24769e-14
9.05482e-16
8.84264e-07
7.63123e-07
1.51734e-07
1.14579e-07
2.00416e-06
3.14037e-06
1.0298e-06
7.79726e-08
2.26916e-08
6.90696e-09
1.67778e-09
1.01599e-09
6.04756e-10
3.01526e-10
1.31623e-10
5.16367e-11
1.72225e-11
4.8409e-12
1.15694e-12
2.36096e-13
4.45374e-14
2.41726e-15
2.54168e-16
4.66229e-07
4.62737e-07
4.78474e-07
2.20013e-06
3.2714e-06
3.34624e-06
6.32565e-07
1.17625e-07
2.11604e-08
2.56171e-09
1.20708e-09
8.49163e-10
4.63895e-10
2.14701e-10
8.76197e-11
3.04645e-11
9.01954e-12
2.26857e-12
4.77249e-13
8.54952e-14
1.2329e-14
1.43872e-15
8.05661e-17
6.90013e-07
4.07987e-07
6.39644e-07
3.53042e-06
3.51768e-06
1.49399e-06
9.62956e-08
5.67241e-08
1.13245e-08
1.57749e-09
1.14632e-09
6.85175e-10
3.20935e-10
1.2955e-10
4.39843e-11
1.27336e-11
3.16038e-12
6.72852e-13
1.22734e-13
1.87453e-14
2.528e-15
1.15355e-16
1.37386e-17
1.16218e-06
5.04044e-07
3.65902e-07
1.14643e-06
1.07618e-06
6.48791e-08
5.51645e-08
1.13842e-08
2.73948e-09
1.55802e-09
9.05073e-10
4.3861e-10
1.76586e-10
5.74121e-11
1.56484e-11
3.62235e-12
7.21857e-13
1.25021e-13
1.84864e-14
2.40822e-15
2.02017e-16
1.49485e-17
1.0417e-18
1.16648e-06
9.92147e-07
4.23774e-08
4.16174e-08
7.44408e-08
3.99066e-08
3.26187e-08
6.62507e-09
1.81325e-09
1.08497e-09
5.45337e-10
2.3095e-10
7.50338e-11
1.91008e-11
3.93654e-12
6.84272e-13
1.03403e-13
1.38092e-14
1.63231e-15
1.68052e-16
1.48504e-17
8.29759e-19
4.98977e-20
6.13367e-07
6.0395e-07
2.52183e-07
1.3304e-07
1.70689e-07
1.62947e-07
2.19682e-08
1.2106e-09
9.43641e-10
5.9298e-10
2.77115e-10
9.67269e-11
2.45463e-11
4.70211e-12
7.11145e-13
8.85454e-14
9.58968e-15
9.37443e-16
8.06134e-17
6.05788e-18
3.88951e-19
1.99091e-20
7.58072e-22
0.991143
0.981128
0.939858
0.834344
0.994412
0.987581
0.985548
0.982727
0.995511
0.997853
0.997896
0.997881
0.571462
0.603674
0.596877
0.585099
6.95118e-07
6.5285e-07
0.000107534
0.00126966
3.19582e-05
5.97386e-05
2.43761e-06
3.51773e-06
0.000593724
0.00123296
0.00250338
0.00368747
0.00207553
0.0051901
0.010915
0.0111619
0.0112228
0.0112228
0.0112064
0.0105946
0.01034
0.00526076
1.17395e-09
1.16898e-09
0.00017014
0.000215526
1.1739e-09
5.19507e-09
9.87402e-11
8.21645e-11
2.9785e-07
6.31595e-07
3.65772e-06
9.95702e-08
1.58635e-07
2.79042e-06
1.15431e-05
2.93194e-06
7.13696e-09
8.53428e-09
5.28883e-09
5.32361e-09
7.17878e-09
2.71898e-09
7.40636e-08
3.92802e-08
1.43384e-08
5.30316e-09
1.09356e-09
9.55816e-10
8.99286e-10
8.82219e-10
6.12451e-09
4.94444e-09
2.15771e-09
9.58436e-10
4.32839e-09
3.41537e-09
1.88525e-09
7.94709e-10
1.5298e-09
1.05568e-09
5.95617e-10
3.78552e-10
3.32929e-10
2.13609e-10
1.73459e-10
1.32506e-10
8.44746e-11
6.56886e-11
4.88052e-11
4.98427e-11
2.07401e-11
1.67248e-11
1.78124e-11
1.77773e-11
5.49179e-12
5.54803e-12
5.33672e-12
6.18633e-12
1.33895e-12
1.21448e-12
1.43283e-12
1.64075e-12
2.9354e-13
3.21645e-13
3.32493e-13
4.53193e-13
5.39212e-14
5.1041e-14
7.13115e-14
9.00563e-14
1.0634e-14
1.15988e-14
1.14849e-14
1.81622e-14
2.36594e-15
1.51183e-15
2.07093e-15
2.64e-15
7.62815e-16
3.30262e-16
2.4716e-16
4.0768e-16
2.60716e-16
3.38524e-17
3.69979e-17
4.10173e-17
4.5924e-16
2.25908e-17
2.57756e-18
5.00835e-18
3.989e-16
2.89351e-17
1.69211e-18
3.92364e-19
3.67019e-16
4.55086e-17
1.18614e-18
5.96564e-20
2.85039e-16
3.95132e-17
2.77856e-18
2.55804e-20
1.47938e-16
1.72861e-17
2.3004e-19
2.13003e-21
4.0087e-17
6.12205e-18
3.65663e-19
3.09637e-21
1.11026e-17
9.88242e-19
6.53202e-21
1.20175e-23
2.26613e-18
1.56352e-19
2.05374e-21
2.06014e-24
1.36271e-19
3.06899e-21
5.47677e-24
6.02159e-26
4.76921e-21
6.20111e-23
4.11304e-26
5.78606e-27
3.9645e-23
1.06787e-25
2.73906e-28
4.85402e-28
0.703206
0.667043
0.751849
0.964178
0.99989
0.99988
0.994818
0.664036
0.114049
0.113897
0.319787
0.845767
0.871844
0.636992
0.525504
0.541257
0.564791
0.861908
0.897126
0.983922
0.993467
0.999639
0.999678
0.999697
0.999684
0.999688
0.984969
0.679291
0.44648
0.647868
0.899548
0.547809
0.360289
0.295529
0.305601
0.570237
0.753408
0.895729
0.99799
0.997984
0.983588
0.956926
0.950699
0.979996
0.998759
0.99817
0.994203
0.967923
0.969219
0.968897
0.771993
0.391593
0.250752
0.250622
0.458844
0.336881
0.5839
0.585842
0.582651
0.530057
0.506919
0.585331
0.786585
0.934453
0.942877
0.870371
0.872478
0.930757
0.934174
0.819017
0.534642
0.316416
0.208404
0.2309
0.248625
0.33892
0.000884524
1.99177e-13
4.50929e-16
-5.13314e-12
6.94987e-20
0.122197
0.323877
0.434905
0.456353
0.435994
0.449818
0.470172
0.451857
0.344447
0.127532
0.0847931
0.0254379
0.0662759
0.198665
8.9974e-06
1.07296e-05
1.00334e-05
-6.00239e-11
2.47553e-30
8.61076e-27
2.65344e-08
0.000436383
0.110451
0.2072
0.230699
0.191593
0.117633
0.0773958
0.0485609
0.00799645
9.58097e-07
0.00331302
0.0756071
0.00369023
0.00211824
3.78364e-05
2.68421e-12
1.10608e-11
-1.38483e-17
3.96277e-07
1.10487e-05
1.43349e-12
4.743e-12
1.43136e-12
4.743e-12
0.0010601
8.91361e-07
8.92734e-07
8.91361e-07
9.57654e-07
2.38495e-07
2.39282e-07
0.0111734
0.00398961
7.34228e-08
1.29817e-06
3.34741e-05
8.10544e-05
0.000187091
0.000285297
0.000299683
0.000816445
0.0028246
0.00295938
0.00290018
0.00102762
3.77481e-06
3.46308e-06
6.22748e-06
5.95536e-06
3.87765e-07
0.00466395
3.14603e-05
8.32785e-08
1.35243e-05
0.000169622
0.000369024
0.000372333
0.000372179
0.000325892
8.13029e-05
1.36849e-05
2.11929e-05
1.58269e-05
1.56483e-05
2.01859e-05
6.62125e-06
7.75228e-06
1.75999e-05
7.1705e-08
1.17225e-09
4.50813e-08
1.19943e-05
0.00022546
0.000357525
0.00028423
8.02708e-06
4.01078e-06
1.1129e-06
-2.10099e-11
7.24101e-06
4.04436e-05
6.56836e-05
8.58168e-05
7.67998e-05
1.87612e-05
1.58819e-08
1.89398e-08
5.17748e-09
1.1739e-09
1.18209e-09
0.000130427
0.000345972
0.000333272
3.91682e-05
4.44855e-08
4.6919e-08
1.17596e-08
1.67288e-11
1.75206e-05
4.05105e-05
6.31667e-05
8.96097e-05
7.92892e-05
3.00459e-05
7.73629e-07
4.88605e-09
4.90142e-09
7.62895e-07
3.65227e-06
3.45149e-05
4.35636e-05
4.23691e-06
1.86173e-06
1.97277e-06
4.16585e-06
1.87353e-06
1.3837e-08
9.74123e-25
1.77401e-26
2.00373e-07
4.23153e-05
9.42293e-06
5.11875e-06
1.80994e-06
5.37307e-08
1.38369e-08
6.88709e-06
1.1484e-05
9.60501e-06
8.39233e-06
9.13649e-06
2.49667e-05
5.27153e-05
6.4543e-05
5.50378e-05
2.33619e-05
7.70819e-07
1.14407e-10
3.89452e-07
2.40392e-07
2.80108e-07
1.2345e-07
1.19923e-07
1.1691e-07
1.71677e-08
1.50375e-06
1.69928e-05
2.91678e-05
2.9449e-05
4.90711e-05
7.47226e-05
7.46899e-05
7.49144e-05
7.48154e-05
5.11198e-05
7.07386e-06
1.42515e-10
3.53116e-07
9.74873e-06
1.91638e-05
6.37512e-06
7.91878e-08
5.55365e-08
1.09111e-08
2.38025e-10
2.28574e-10
2.30607e-10
5.65798e-06
1.68003e-05
1.98055e-05
3.58206e-05
7.299e-05
7.1159e-05
2.9365e-05
8.35113e-06
3.9643e-08
3.08063e-09
1.82287e-05
2.16255e-05
1.45687e-05
1.78666e-07
2.83571e-08
2.65677e-09
1.38929e-09
7.28647e-10
7.31522e-10
6.01788e-10
5.8417e-10
5.40175e-10
5.48246e-10
3.58867e-06
8.45152e-07
2.10785e-09
6.22465e-07
3.07077e-07
3.21693e-09
1.09973e-05
2.15852e-05
8.11763e-06
6.89326e-08
1.54498e-08
2.0048e-10
9.17196e-10
1.12343e-09
1.3749e-09
1.27226e-09
1.06301e-09
5.64033e-10
5.71282e-10
2.32877e-09
1.09808e-09
1.8654e-09
1.69096e-08
2.97207e-07
2.69374e-07
1.29493e-08
2.29749e-06
1.64653e-07
2.65388e-08
7.63281e-09
1.0372e-10
8.77061e-10
1.06771e-09
1.4865e-09
1.65769e-09
1.57426e-09
1.07589e-09
1.20883e-09
1.89505e-09
8.01345e-10
2.09011e-10
1.07224e-07
3.95845e-07
2.36605e-07
1.29933e-08
7.18404e-09
5.2511e-09
9.90982e-09
7.79132e-10
6.17281e-11
6.17341e-10
6.9866e-10
9.90046e-10
1.39115e-09
1.35444e-09
1.04068e-09
6.34053e-10
2.37957e-10
2.09011e-10
2.10001e-10
2.48598e-07
3.95513e-07
3.45409e-08
7.73814e-09
3.46835e-09
3.04384e-09
9.74728e-11
2.77114e-10
2.17258e-11
3.09174e-10
3.68984e-10
5.04015e-10
7.23686e-10
7.58299e-10
7.06761e-10
4.9443e-10
2.39787e-10
3.15043e-10
1.83878e-08
1.84296e-07
8.09939e-08
2.30393e-08
6.91375e-09
1.15827e-09
5.41763e-11
5.42421e-11
6.16042e-11
1.24497e-11
1.50315e-10
2.00045e-10
2.87217e-10
3.11754e-10
3.36656e-10
3.42939e-10
3.00096e-10
2.7114e-10
2.35455e-09
1.25616e-08
2.26538e-11
2.24899e-11
3.50193e-09
1.94352e-09
3.74004e-10
1.29523e-10
6.01343e-11
2.75973e-11
4.87022e-12
6.6866e-11
9.45304e-11
1.22595e-10
1.44147e-10
1.54536e-10
1.51374e-10
1.49806e-10
3.86023e-10
2.74773e-09
8.98931e-10
2.58485e-11
2.31214e-11
2.30502e-11
3.41021e-10
1.74179e-10
9.72976e-11
6.28288e-11
2.11144e-11
3.1732e-12
2.95522e-11
4.16593e-11
5.2045e-11
5.93753e-11
6.81464e-11
6.83595e-11
7.94885e-11
2.94644e-10
8.09596e-10
1.6579e-10
7.66437e-11
4.76405e-11
4.17617e-11
4.97453e-11
6.47462e-11
6.08989e-11
4.29718e-11
1.53451e-11
1.98864e-12
9.93472e-12
1.51005e-11
2.04367e-11
2.39582e-11
2.70988e-11
3.08523e-11
4.27128e-11
5.46825e-11
2.95861e-11
9.34663e-11
7.43109e-11
4.82973e-11
4.51253e-11
4.51657e-11
4.28906e-11
3.63327e-11
2.17273e-11
7.89155e-12
1.46989e-12
3.43798e-12
5.51164e-12
7.72478e-12
9.59441e-12
1.07408e-11
1.32822e-11
1.4884e-11
1.48402e-11
1.18487e-11
1.45473e-11
1.45647e-11
1.89085e-11
2.10915e-11
1.94559e-11
1.83919e-11
2.08005e-11
1.16767e-11
4.86403e-12
1.05527e-12
8.44946e-13
1.77816e-12
2.66578e-12
3.54421e-12
4.30744e-12
5.11132e-12
6.22847e-12
6.85526e-12
7.65966e-12
8.55505e-12
6.96651e-12
7.9568e-12
8.28723e-12
4.83578e-12
5.13917e-12
6.43802e-12
4.73708e-12
1.76787e-12
8.70732e-13
2.67411e-13
5.0558e-13
8.21437e-13
1.16381e-12
1.59165e-12
1.97781e-12
2.39888e-12
2.87157e-12
3.21331e-12
3.41841e-12
3.45319e-12
2.8698e-12
2.29764e-12
1.0256e-12
1.05881e-12
1.86285e-12
1.67116e-12
1.12526e-12
7.46109e-13
4.35698e-14
1.12822e-13
2.05526e-13
3.27402e-13
4.71308e-13
6.61798e-13
8.27553e-13
9.66049e-13
1.01905e-12
1.01051e-12
9.19443e-13
3.90675e-13
3.10577e-13
1.84282e-13
2.43304e-13
4.42451e-13
6.01795e-13
7.46373e-13
6.67083e-13
1.02048e-14
2.31029e-14
4.41221e-14
7.65436e-14
1.23431e-13
1.78126e-13
2.35975e-13
2.81199e-13
2.84169e-13
2.26241e-13
8.83994e-14
3.03161e-14
3.98569e-14
4.97809e-14
8.3709e-14
1.8065e-13
3.46004e-13
6.66693e-13
5.57747e-13
1.34067e-15
3.67497e-15
7.58014e-15
1.4172e-14
2.43025e-14
3.82623e-14
5.11214e-14
5.77025e-14
4.79773e-14
2.08823e-14
6.75979e-15
5.3433e-15
9.75961e-15
2.08869e-14
6.20238e-14
1.48444e-13
3.09858e-13
6.26002e-13
4.71143e-13
1.96657e-16
4.80856e-16
1.0039e-15
2.06931e-15
3.7874e-15
6.02803e-15
8.00135e-15
8.04381e-15
5.53156e-15
2.02089e-15
1.52407e-15
3.12607e-15
7.11568e-15
1.79772e-14
5.9763e-14
1.52315e-13
3.12971e-13
5.7418e-13
4.16152e-13
1.92852e-17
4.71889e-17
1.09574e-16
2.38572e-16
4.6001e-16
7.16833e-16
8.65693e-16
7.85838e-16
4.86022e-16
4.79366e-16
1.02117e-15
2.50374e-15
6.31318e-15
1.57164e-14
5.36594e-14
1.56699e-13
3.17105e-13
5.19603e-13
3.54861e-13
1.89118e-18
4.67469e-18
1.08727e-17
2.45072e-17
4.80513e-17
7.2757e-17
8.69211e-17
8.73957e-17
1.2528e-16
2.78666e-16
7.10005e-16
1.83085e-15
4.98231e-15
1.31736e-14
3.5366e-14
1.29807e-13
2.95853e-13
4.33773e-13
2.38923e-13
1.78148e-19
4.79272e-19
1.13599e-18
2.46492e-18
4.78898e-18
8.05676e-18
1.23246e-17
2.34125e-17
5.7668e-17
1.5518e-16
4.1551e-16
1.14941e-15
3.33676e-15
9.64896e-15
2.07816e-14
7.25379e-14
2.30161e-13
3.44104e-13
1.51766e-13
1.78689e-20
4.97054e-20
1.33818e-19
3.27881e-19
7.26145e-19
1.4938e-18
3.32916e-18
8.73876e-18
2.48368e-17
7.20831e-17
2.13098e-16
6.47441e-16
2.00723e-15
6.14347e-15
1.50321e-14
3.48078e-14
1.13246e-13
2.30251e-13
9.28103e-14
1.90926e-21
5.88415e-21
1.70942e-20
4.75611e-20
1.26988e-19
3.39279e-19
9.48422e-19
2.95851e-18
9.19424e-18
2.91289e-17
9.50223e-17
3.24329e-16
1.10014e-15
3.48192e-15
9.2145e-15
1.87801e-14
4.57348e-14
1.13254e-13
5.00623e-14
2.61406e-22
6.78214e-22
2.21627e-21
6.9742e-21
2.13545e-20
6.50692e-20
2.14284e-19
7.44707e-19
2.54847e-18
9.25436e-18
3.47017e-17
1.37352e-16
5.25987e-16
1.74225e-15
4.84357e-15
1.10409e-14
2.28186e-14
4.64956e-14
3.19431e-14
1.94142e-23
7.40442e-23
2.54594e-22
8.47021e-22
2.82124e-21
9.57164e-21
3.60829e-20
1.36933e-19
5.55517e-19
2.33939e-18
1.0298e-17
4.9228e-17
2.16862e-16
7.4663e-16
2.12767e-15
5.12082e-15
1.03423e-14
1.83689e-14
1.4202e-14
1.97517e-24
6.84785e-24
2.06905e-23
6.04256e-23
1.95732e-22
6.93509e-22
3.1807e-21
1.6802e-20
8.53662e-20
4.50299e-19
2.31215e-18
1.36175e-17
6.83459e-17
2.60664e-16
7.43275e-16
1.84647e-15
4.16753e-15
5.73734e-15
8.17989e-15
1.6321e-25
5.12625e-25
1.46866e-24
4.47204e-24
1.66818e-23
7.67308e-23
4.13268e-22
2.43025e-21
1.52988e-20
9.67715e-20
6.10704e-19
3.97159e-18
2.15875e-17
8.41707e-17
2.51892e-16
5.8767e-16
1.01656e-15
2.66463e-15
3.20809e-15
1.2369e-26
3.27588e-26
8.15138e-26
2.49433e-25
1.06045e-24
6.08248e-24
4.17063e-23
2.94226e-22
2.26872e-21
1.72149e-20
1.27683e-19
8.16978e-19
4.59151e-18
1.87892e-17
6.00415e-17
1.51214e-16
2.55642e-16
6.42323e-16
6.16847e-16
7.78561e-28
1.5972e-27
3.54799e-27
1.16899e-26
5.55549e-26
3.59934e-25
3.0369e-24
2.73658e-23
2.46301e-22
1.96879e-21
1.485e-20
9.26957e-20
5.32932e-19
2.33055e-18
7.75145e-18
1.99583e-17
3.98577e-17
6.30233e-17
5.31789e-18
)
;

boundaryField
{
    leftWall
    {
        type            zeroGradient;
    }
    rightWall
    {
        type            zeroGradient;
    }
    lowerWall
    {
        type            zeroGradient;
    }
    atmosphere
    {
        type            inletOutlet;
        inletValue      uniform 0;
        value           nonuniform List<scalar> 
46
(
6.13367e-07
6.0395e-07
2.52183e-07
1.3304e-07
1.70689e-07
1.62947e-07
2.19682e-08
1.2106e-09
9.43641e-10
5.9298e-10
2.77115e-10
9.67269e-11
2.45463e-11
4.70211e-12
7.11145e-13
8.85454e-14
0
0
0
0
0
0
0
0
0
0
0
0
0
0
0
0
0
0
0
0
0
0
0
0
0
0
0
0
0
0
)
;
    }
    defaultFaces
    {
        type            empty;
    }
}


// ************************************************************************* //
