/*--------------------------------*- C++ -*----------------------------------*\
| =========                 |                                                 |
| \\      /  F ield         | OpenFOAM: The Open Source CFD Toolbox           |
|  \\    /   O peration     | Version:  2312                                  |
|   \\  /    A nd           | Website:  www.openfoam.com                      |
|    \\/     M anipulation  |                                                 |
\*---------------------------------------------------------------------------*/
FoamFile
{
    version     2.0;
    format      ascii;
    arch        "LSB;label=32;scalar=64";
    class       volScalarField;
    location    "2.1";
    object      p_rgh;
}
// * * * * * * * * * * * * * * * * * * * * * * * * * * * * * * * * * * * * * //

dimensions      [1 -1 -2 0 0 0 0];

internalField   nonuniform List<scalar> 
2268
(
6970.32
6900.37
6784.92
6630.85
6453.15
6268.72
6088.79
5919.3
5763.53
5608.39
5482.33
5376.78
5293.86
5235.81
5202.13
5189.4
5193.3
5210.63
5230.45
5252.19
5274.9
5297.65
5318.9
6983.57
6909.6
6793.7
6636.35
6454.47
6267.92
6086.44
5915.63
5758.07
5606.42
5478.17
5371.68
5288.36
5230.29
5197.21
5185.48
5190.49
5209.46
5229.75
5251.85
5275.03
5298.98
5322.8
7013.29
6932.73
6811
6644.16
6457.78
6266.21
6081.82
5909.99
5751.83
5601.37
5470.68
5361.89
5277.32
5219.43
5187.58
5177.86
5185.36
5207.09
5228.49
5251.09
5274.89
5301.68
5329.77
7058.7
6968.84
6836.1
6657.85
6461.55
6262.03
6073.5
5900.73
5741.84
5589.62
5456.88
5346.3
5260.54
5205.98
5174.13
5166.48
5178.23
5202.98
5226.24
5249.39
5274.98
5306.31
5340.55
7121.49
7017.76
6870.65
6676.73
6468.56
6256.77
6062.99
5890.02
5732.97
5577.8
5441.03
5317.02
5170.31
5050.85
4983.09
4978.44
5027.22
5092.42
5142.43
5188
5261.34
5310.15
5363.97
7190.81
7076.12
6902.55
6697.03
6469.7
6244.49
6035.04
5784.87
5402.15
4788.39
4037.34
3308.68
2816.59
2511.14
2385.14
2382.59
2491.59
2643.97
2795.14
2908.84
2986.26
3307.2
3821.93
7278.75
7101.11
6954.92
6730.04
6074.05
4925.05
3698.87
2757.85
2044.95
1493.04
1286.6
1278.23
1285.03
1294.72
1302.23
1308.07
1310.92
1311.56
1307.99
1301.06
1322.96
1324.85
1497.73
7435.33
6992.52
5775.09
3734.2
2159.97
1389.66
1248.48
1234.44
1230.16
1241.54
1256.62
1268.42
1279.78
1290.2
1298.67
1305.68
1310.35
1311.81
1312.7
1311.67
1277.73
1272.57
1255.8
3519.52
3466.12
3381.56
3206.16
3021.75
2867.47
2794.73
2801.54
2859.84
2945.65
3060.34
3192.94
3275.98
3250.06
3038.8
2767.36
2527.31
2368.37
2312.45
3522.03
3470.95
3366.87
3146.61
2870.52
2635.82
2562.35
2597.2
2720.3
2799.48
2895.96
3023.33
3182.35
3243.94
3005.18
2673.91
2325.7
2041.68
2001.32
3450.62
3286.77
3106.98
2664.78
2378.07
2155.18
1971.51
1987.39
2092.47
2429.99
2654.71
2829.54
2859.32
2881.37
2444.11
1910.37
1342.09
1270.25
1255.91
2406.56
2104
2093
2050.95
1821.79
1787.87
1756.57
1708.03
1601.3
1665.17
2077.26
2534.65
2731.69
2294.39
1953.53
1215.32
1258.38
1286.54
1162.07
1705.73
1805.76
1711.14
1877.85
1888.9
1832.15
1657.3
1597.86
1593.98
1595.34
1597.81
2243.32
2288.8
2022.31
1161.39
1225.37
1272.54
1303.79
1145.34
1710.44
1657.43
1660.11
1586.51
1518.1
1422.59
1387.56
1515.58
1559.59
1579.79
1509.61
1754.76
1592.26
1131.16
1167.33
1206.9
1298.54
1262.69
1167.8
1320.83
1229.94
1154.44
1169.45
1141.23
1110.77
1088.65
973.42
1169.8
1408.4
1224.88
1038.44
1004.34
1053.5
1166.36
1238.83
1232.55
1206.13
1162.02
1234.75
1141.76
1159.03
1153.07
1185.7
1191.93
1162.45
987.627
861.76
1003.28
1073.02
1033.99
1091.53
1097.43
1167.53
1235.61
1195.29
1028.02
1129.11
3399.99
2280.27
1590.89
1327.98
1282.45
1249.33
1229.68
1215.82
1216.56
1225.95
1238.27
1254.26
1271.54
1283.75
1293.73
1302.39
1309.48
1311.59
1335.89
1265.21
1250.9
1230.16
1271.25
1464.11
1512.36
1342.67
1248.04
1168.84
1105.91
1040.17
1002.77
1007.38
1042.93
1080.87
1124.25
1166.24
1229.14
1268.46
1295.36
1306.4
1314.85
1284.06
1188.02
1227.72
1293.52
1276.1
1107.55
1140.6
1087.36
1005.36
948.174
909.117
892.829
883.521
882.593
888.158
896.892
908.892
933.871
983.211
1030.93
1195.39
1312.15
1313.45
1274.79
1263.34
1299.77
1306.33
1304.53
962.347
937.071
911.941
919.05
902.594
884.037
869.241
862.006
864.454
874.4
886.792
898.805
878.142
849.616
876.035
913.522
1051.26
1242.35
1292.35
1311.24
1316.23
1269.17
1142.25
1012.03
987.936
959.618
929.978
897.897
864.831
834.125
802.079
823.852
849.593
872.147
893.12
901.668
896.469
897.393
892.85
879.448
888.414
1067.87
1215.51
1216.28
981.865
859.642
1001.54
1007.63
956.538
883.596
814.038
758.17
688.181
511.427
447.696
530.53
691.235
759.57
840.826
902.158
898.584
891.561
879.469
848.155
817.278
832.23
808.42
809.605
811.507
819.412
956.106
758.145
632.406
623.688
730.413
311.506
299.008
327.124
349.143
387.02
755.591
902.731
900.683
899.012
893.078
883.747
866.932
818.253
807.862
800.778
821.21
808.868
1086.84
1084.87
961.27
889.598
875.421
836.761
795.13
653.838
603.451
620.102
759.3
877.962
901.916
902.083
901.646
898.704
891.171
879.778
856.793
821.906
831.321
827.228
816.095
1063.55
1061.42
889.837
758.903
719.018
764.931
808.322
848.33
874.153
892.314
898.606
900.519
902.171
904.843
906.088
904.681
901.022
893.142
878.05
863.048
854.077
832.559
796.118
513.851
757.157
443.701
81.7403
38.1751
55.2562
327.024
554.555
692.393
870.767
947.706
915.088
889.805
905.911
910.903
910.802
910.736
902.974
873.258
787.402
658.393
424.63
332.463
89.1614
168.767
49.1968
0.20949
-0.197574
-0.123032
2.66993
4.7302
8.92294
38.6493
244.167
365.091
465.82
593.226
661.805
712.444
576.401
428.419
323.456
55.6176
0.446472
0.420694
0.395917
42.5987
104.039
24.3921
-0.391514
-0.591701
-0.601527
-0.691894
-0.944216
-0.817869
-0.627656
-0.326969
-0.113646
-0.0381093
-0.0696468
-0.209621
-0.303895
-0.314759
-0.259328
-0.234396
-0.220923
-0.105771
0.296411
0.389369
42.3927
114.812
9.14114
-0.762305
-0.969197
-1.13017
-1.18426
-1.10632
-0.933152
-0.763152
-0.635992
-0.500599
-0.251544
-0.082921
0.0461847
0.0224109
0.0730032
0.1163
-0.0753366
-0.145589
-0.0769058
0.584445
0.907497
71.5138
82.1435
-0.568256
-1.02195
-1.19114
-1.28933
-1.25874
-1.11863
-0.941885
-0.728161
-0.527196
-0.50555
-0.462929
-0.420625
-0.383637
-0.346937
-0.177202
0.102142
0.135245
0.0167003
-0.0907562
-0.0888544
0.231063
123.901
14.1381
-1.19133
-1.20376
-1.28947
-1.29518
-1.2178
-1.0734
-0.915323
-0.773908
-0.509562
-0.404686
-0.326256
-0.396217
-0.378072
-0.342514
-0.311882
-0.279459
-0.193283
-0.200358
-0.092455
-0.121131
-0.0902138
128.733
-0.579451
-1.24407
-1.26086
-1.25192
-1.20835
-1.11432
-0.987196
-0.841975
-0.72371
-0.588399
-0.380502
-0.309991
-0.31984
-0.370084
-0.332744
-0.299122
-0.266617
-0.231354
-0.194335
-0.15872
-0.123307
-0.0903804
128.027
-0.306738
-1.08277
-1.14976
-1.11571
-1.05754
-0.97128
-0.867751
-0.750268
-0.656016
-0.575682
-0.450157
-0.349747
-0.371858
-0.355231
-0.317611
-0.283458
-0.251261
-0.218582
-0.185533
-0.153331
-0.122176
-0.092005
62.4557
-0.0775893
-0.830111
-0.922494
-0.91197
-0.871585
-0.811714
-0.734126
-0.648823
-0.581396
-0.523386
-0.471666
-0.421599
-0.375477
-0.333997
-0.298255
-0.265831
-0.235224
-0.205125
-0.175181
-0.146009
-0.117738
-0.0906053
-0.157898
-0.319718
-0.562707
-0.684205
-0.688041
-0.680044
-0.649396
-0.604848
-0.555899
-0.509831
-0.466361
-0.423456
-0.382772
-0.34474
-0.309516
-0.277461
-0.24763
-0.219088
-0.191264
-0.164154
-0.137805
-0.112303
-0.0878903
0.237501
-0.140453
-0.385627
-0.443278
-0.482169
-0.501856
-0.500325
-0.485337
-0.462184
-0.434095
-0.403952
-0.373065
-0.34219
-0.311986
-0.282916
-0.255086
-0.228368
-0.202557
-0.177485
-0.153077
-0.129352
-0.106385
-0.0844152
0.137371
-0.0314472
-0.165956
-0.259753
-0.322099
-0.359792
-0.378104
-0.382758
-0.376227
-0.362796
-0.345047
-0.324593
-0.30242
-0.279205
-0.255621
-0.232159
-0.209025
-0.1863
-0.164014
-0.142205
-0.120936
-0.100302
-0.0805127
0.0186092
0.0359745
-0.060502
-0.147259
-0.2114
-0.256301
-0.285389
-0.300271
-0.304503
-0.301313
-0.292744
-0.280299
-0.265065
-0.247797
-0.229195
-0.209866
-0.190227
-0.170533
-0.150952
-0.131615
-0.11264
-0.0941475
-0.0763452
0.0909903
0.0661254
-0.0146364
-0.0859243
-0.143288
-0.187099
-0.217553
-0.236679
-0.246905
-0.250104
-0.247788
-0.241169
-0.231218
-0.218733
-0.204353
-0.188699
-0.172272
-0.155414
-0.138376
-0.121354
-0.104513
-0.0880006
-0.0720129
0.0646307
0.0426226
-0.00923933
-0.0603927
-0.105455
-0.141934
-0.169625
-0.189246
-0.201833
-0.208427
-0.209974
-0.207322
-0.201238
-0.192421
-0.181477
-0.16897
-0.155381
-0.141082
-0.126369
-0.111477
-0.0966006
-0.0819027
-0.0675829
0.0252524
0.010588
-0.0193977
-0.0532025
-0.0855594
-0.113791
-0.13686
-0.154566
-0.167165
-0.175046
-0.17866
-0.178502
-0.175109
-0.169028
-0.160794
-0.150881
-0.139713
-0.127655
-0.115014
-0.102043
-0.0889501
-0.0759098
-0.0631118
-0.00535694
-0.0149845
-0.0323616
-0.0540239
-0.0761825
-0.0968696
-0.114848
-0.129569
-0.140849
-0.148655
-0.15307
-0.154298
-0.152651
-0.14852
-0.142363
-0.134524
-0.125361
-0.115213
-0.104378
-0.0931066
-0.0816087
-0.0700605
-0.0586503
-0.0269259
-0.0333888
-0.0437326
-0.0575619
-0.0723401
-0.0869489
-0.100289
-0.111803
-0.121143
-0.128069
-0.132437
-0.134238
-0.133594
-0.130739
-0.126131
-0.119903
-0.112353
-0.103792
-0.0944951
-0.0847012
-0.0746123
-0.0644021
-0.0542442
-0.0417002
-0.0462014
-0.0525851
-0.0615134
-0.0712716
-0.0813519
-0.0908751
-0.0994204
-0.106647
-0.112266
-0.116039
-0.117833
-0.117624
-0.115399
-0.111992
-0.106955
-0.100654
-0.0933756
-0.0853647
-0.0768378
-0.0679815
-0.0589569
-0.0499297
-0.0513596
-0.0547205
-0.0589351
-0.0649309
-0.0714663
-0.0783861
-0.0850003
-0.0910396
-0.0962393
-0.100365
-0.103195
-0.104586
-0.104506
-0.103156
-0.0999026
-0.0955583
-0.0901697
-0.083905
-0.0769555
-0.0695052
-0.06172
-0.0537481
-0.0457352
-0.0574928
-0.0598623
-0.0630013
-0.0673801
-0.0720055
-0.0768751
-0.0814506
-0.0855367
-0.0889517
-0.0915603
-0.0932381
-0.0938872
-0.0934815
-0.0919729
-0.0892202
-0.0854313
-0.0807374
-0.0752764
-0.069202
-0.0626668
-0.0558141
-0.0487727
-0.0416764
-0.0602989
-0.0621691
-0.0649063
-0.0684159
-0.0717026
-0.0758078
-0.0791117
-0.0817996
-0.0837678
-0.0849866
-0.085465
-0.0852066
-0.0842486
-0.082463
-0.0798177
-0.0763696
-0.0721877
-0.0673661
-0.062019
-0.0562682
-0.0502326
-0.044024
-0.0377551
-0.0601355
-0.0619412
-0.0646647
-0.0674304
-0.0706293
-0.0742887
-0.0768215
-0.0785743
-0.0794603
-0.0795536
-0.0789769
-0.0778829
-0.0762237
-0.0740638
-0.0713749
-0.0681312
-0.0643375
-0.0600392
-0.0553122
-0.0502473
-0.0449389
-0.0394785
-0.0339669
-0.0575276
-0.0593081
-0.0622709
-0.0650724
-0.0681313
-0.0714437
-0.0734495
-0.0745965
-0.0747964
-0.0741007
-0.0727269
-0.0709063
-0.0687343
-0.0662836
-0.0635488
-0.0604702
-0.0570079
-0.0531674
-0.0489909
-0.044542
-0.0398933
-0.0351208
-0.0303063
-0.0473203
-0.0547095
-0.0578727
-0.0609802
-0.0640121
-0.0665929
-0.0676477
-0.0688426
-0.0689506
-0.0676709
-0.0657574
-0.0637301
-0.061313
-0.0587458
-0.0560579
-0.0531805
-0.0500491
-0.046642
-0.0429779
-0.0390998
-0.0350628
-0.0309269
-0.0267653
-0.0401789
-0.0473481
-0.0517342
-0.0552514
-0.0580132
-0.0595116
-0.0604314
-0.0615299
-0.0612771
-0.0584089
-0.0575499
-0.0561466
-0.0537192
-0.051237
-0.0487299
-0.0461283
-0.0433585
-0.0403863
-0.0372169
-0.0338805
-0.0304195
-0.0268848
-0.0233363
-0.0332212
-0.0346671
-0.044153
-0.0476099
-0.0502873
-0.0496448
-0.0505602
-0.0528359
-0.0514814
-0.0498767
-0.0490765
-0.0480752
-0.0458919
-0.0436879
-0.0414959
-0.0392521
-0.036884
-0.0343573
-0.0316742
-0.0288589
-0.0259467
-0.0229794
-0.0200129
-0.0292578
-0.0308115
-0.036922
-0.0399533
-0.0323306
-0.0272316
-0.0388841
-0.0432613
-0.0415309
-0.0406961
-0.0409555
-0.0397103
-0.0379254
-0.0361388
-0.0343669
-0.0325458
-0.0306117
-0.0285393
-0.0263349
-0.0240224
-0.0216336
-0.0192076
-0.0167916
-0.0255403
-0.0262996
-0.0290191
-0.0221315
-0.0165865
-0.0172138
-0.0313196
-0.032855
-0.0317816
-0.0323106
-0.0324283
-0.0312988
-0.0300074
-0.0287058
-0.0274055
-0.0260408
-0.0245507
-0.0229288
-0.0211908
-0.0193619
-0.0174726
-0.0155586
-0.0136665
0.0437116
0.0232732
0.00468023
0.00539122
-0.00843371
-0.0185647
-0.0247681
-0.0237568
-0.0236581
-0.0241048
-0.0237155
-0.0230588
-0.0223512
-0.0215328
-0.020698
-0.0197875
-0.0187169
-0.0175231
-0.0162314
-0.0148648
-0.0134509
-0.0120239
-0.0106263
0.0626816
0.0589673
0.0578319
-0.00212241
-0.015988
-0.0189658
-0.0163796
-0.0156922
-0.0157803
-0.015731
-0.0155563
-0.0152877
-0.0149854
-0.014694
-0.014309
-0.0138488
-0.0131173
-0.0123104
-0.0114391
-0.0105128
-0.00955188
-0.00858556
-0.0076576
0.0624694
0.0620247
0.0120857
-0.0195969
-0.0171318
-0.0138291
-0.00744969
-0.0077088
-0.00816421
-0.00826033
-0.00834855
-0.00840506
-0.00844745
-0.00849175
-0.00850183
-0.00846436
-0.0077741
-0.0072815
-0.00679543
-0.00628213
-0.00575004
-0.00522333
-0.00474319
-0.00132957
0.00350271
-0.0023766
0.000548249
0.00187513
0.00511824
-0.00219982
-0.00351189
-0.00253476
-0.00211869
-0.00195265
-0.00194033
-0.00203153
-0.00213879
-0.00215145
-0.00197868
-0.00229903
-0.00231625
-0.00224067
-0.00212755
-0.00200213
-0.00188854
-0.00183214
1309.77
1331.79
1308.01
1273.75
1267.45
1259.82
1255.06
1249.28
1286.08
1267.45
1269.02
1266.42
1137.67
1158.3
1150.22
1124.3
870.729
849.457
819.373
800.096
804.827
799.187
793.76
790.119
801.706
797.005
793.004
800.956
840.533
855.084
914.807
1010.68
814.787
608.404
465.203
400.477
221.546
35.9677
6.72623
0.283064
0.32355
0.469892
0.126961
0.147693
0.189944
0.250763
0.239088
0.153215
1.0979
1.21325
0.970699
0.748106
0.543252
0.281866
0.29981
0.457771
-0.061383
-0.0421583
-0.024105
-0.00795739
-0.0662223
-0.0504923
-0.0356226
-0.0217267
-0.0697505
-0.0557863
-0.042672
-0.0303898
-0.070609
-0.058053
-0.0464028
-0.0354444
-0.0699099
-0.0586021
-0.0481012
-0.0382307
-0.0682425
-0.0580629
-0.0485852
-0.0396144
-0.0659781
-0.0568152
-0.0482165
-0.0400452
-0.0632768
-0.0550256
-0.0472346
-0.0397768
-0.060271
-0.052843
-0.0457774
-0.0389809
-0.0570361
-0.0503504
-0.04396
-0.0377757
-0.0536533
-0.0476449
-0.041869
-0.0362575
-0.0501785
-0.0447841
-0.039581
-0.0345021
-0.0466708
-0.0418393
-0.0371579
-0.0325757
-0.0431691
-0.0388476
-0.0346525
-0.0305314
-0.0397152
-0.0358624
-0.0321094
-0.0284173
-0.036329
-0.0329013
-0.0295612
-0.0262667
-0.033025
-0.0299914
-0.0270288
-0.024106
-0.0298025
-0.0271302
-0.0245247
-0.0219505
-0.0266697
-0.0243375
-0.0220619
-0.0198168
-0.0236223
-0.0216066
-0.019647
-0.0177128
-0.0206612
-0.0189484
-0.0172843
-0.0156463
-0.01778
-0.0163526
-0.0149746
-0.0136195
-0.0149815
-0.0138295
-0.0127206
-0.0116364
-0.0122584
-0.0113669
-0.0105191
-0.00969386
-0.00960204
-0.0089624
-0.00836106
-0.00778464
-0.00699617
-0.00659552
-0.00623458
-0.00589894
-0.00443253
-0.00426529
-0.00413437
-0.00403372
-0.00185897
-0.00191825
-0.00201712
-0.00215082
1187.32
1140.55
1155.05
1203.77
1204.75
1192.17
1166.05
1022.19
846.228
856.412
1040.78
1185.73
1177.74
1107.59
1170.74
1172.32
964.36
1035.61
1128.8
1244.17
1239.05
1230.88
1218.97
1209.53
1197.34
1181.1
1164.96
1023.76
929.822
1086.54
1356.9
1272.42
1185.26
1093.96
833.415
919.042
1008.18
1152.09
1256.92
1243.49
1228.54
1228.38
1236.78
1232.37
1191.01
1181.85
1182.17
1159.89
1156.86
1202.06
1232.65
1024.04
834.573
820.321
903.068
963.265
1139.74
1090.78
1088.03
1085.15
1053.24
1076.07
1154.09
1154.53
1146.89
1085.43
1085.56
1123.13
1115.86
1030.51
933.649
847.984
779.302
874.655
986.483
1024.64
798.749
802.881
834.757
812.075
777.026
759.865
842.728
895.939
897.329
884.947
881.485
869.461
845.428
818.977
809.819
679.547
705.339
749.561
727.102
800.414
804.173
813.784
783.366
725.065
701.889
692.052
685.59
816.675
979.928
974.995
937.275
802.532
785.23
744.126
538.678
389.338
188.289
113.293
879.614
987.378
982.445
889.823
697.784
692.461
683.394
659.058
629.408
677.33
693.815
621.4
531.341
412.423
257.477
185.173
31.4541
1.81339
0.838632
806.569
567.432
495.696
472.766
360.49
353.297
286.946
222.599
189.445
129.771
94.261
78.6302
79.8582
48.443
17.783
5.78736
0.584174
0.669731
0.711572
362.431
263.985
92.3584
37.4813
42.6853
42.6994
26.676
10.7122
0.863928
0.456935
0.37604
0.369557
0.358013
0.370682
0.418449
0.449842
0.478259
0.604754
0.58652
0.143158
0.173257
0.253223
0.612101
0.794798
0.636869
0.188895
0.251257
0.34592
0.392378
0.454545
0.504207
0.500652
0.523924
0.520816
0.496182
0.509512
0.513091
0.504848
0.131398
0.115416
0.378197
0.78254
0.743656
0.218403
0.171919
0.242466
0.32068
0.542783
0.613096
0.66812
0.674482
0.58859
0.521846
0.50063
0.474989
0.45418
0.44715
0.163071
0.154936
0.206758
0.199182
0.136409
0.177515
0.199614
0.229449
0.314225
0.34385
0.41856
0.403905
0.345184
0.425892
0.398392
0.423632
0.393479
0.389988
0.398057
0.711428
0.220986
0.228961
0.202144
0.238812
0.45817
0.645602
0.637391
0.676576
0.767278
0.469736
0.272975
0.290411
0.363185
0.391963
0.341705
0.339289
0.348774
0.358877
0.464981
0.639446
0.630807
0.295443
0.367915
0.690574
0.784505
0.712058
0.775405
1.28973
1.27756
0.518882
0.446919
1.08942
0.877528
0.340911
0.301988
0.310373
0.320988
0.0164959
0.0679265
0.146377
0.122221
0.115603
0.118903
0.219776
0.418821
0.542238
1.1098
1.30062
1.33292
1.34637
1.3535
1.10177
0.319147
0.264844
0.274088
0.285516
-0.000383495
0.0218629
0.0369367
0.0483164
0.0545662
0.0604362
0.068254
0.0864049
0.0900695
0.0966138
0.822277
1.33804
1.354
1.07128
0.409515
0.231436
0.230394
0.241148
0.252901
-0.0114296
0.00968915
0.0260562
0.0387879
0.0482234
0.0564609
0.0650252
0.0741715
0.0834421
0.0911422
0.0963281
0.623232
0.619396
0.134695
0.165854
0.185758
0.202644
0.212823
0.224557
-0.0184636
0.00120819
0.0176894
0.0312341
0.0422966
0.0519687
0.0611758
0.0703921
0.0794315
0.0875111
0.0946772
0.100982
0.111913
0.128794
0.148231
0.166805
0.1804
0.189079
0.200309
-0.0228756
-0.00458107
0.0114974
0.0251782
0.0369227
0.0472802
0.0569981
0.0663526
0.0756939
0.0843945
0.0929224
0.101251
0.110552
0.124074
0.138154
0.151497
0.161928
0.168967
0.17583
-0.0255985
-0.00853589
0.00689248
0.0204149
0.0322632
0.0429247
0.0528024
0.0621545
0.0718628
0.0804993
0.0890594
0.0969101
0.106429
0.117043
0.127914
0.137959
0.146067
0.151742
0.154614
-0.0271826
-0.0112563
0.00339522
0.016508
0.0281989
0.0387974
0.0485836
0.0577619
0.0670892
0.0757158
0.0833613
0.0913573
0.100178
0.109116
0.117806
0.125664
0.132101
0.140161
0.139091
-0.0279574
-0.0131154
0.000689478
0.0132222
0.024536
0.0348549
0.0443771
0.0532468
0.0616016
0.0697687
0.0774068
0.0851375
0.0929926
0.100757
0.107974
0.114327
0.11964
0.136999
0.127566
-0.0281332
-0.0143469
-0.00142421
0.0104248
0.0212206
0.0311151
0.0402476
0.0487283
0.0566771
0.064219
0.0714921
0.0786027
0.085594
0.092321
0.0984953
0.103787
0.108666
0.125328
0.125438
-0.0278482
-0.0150986
-0.00307282
0.00803592
0.0182269
0.027604
0.0362629
0.0442911
0.0517815
0.0588407
0.0655703
0.0720426
0.0782707
0.0841423
0.0894574
0.093955
0.0983256
0.114789
0.115812
-0.0272023
-0.0154671
-0.00433846
0.00600242
0.01554
0.0243438
0.0324799
0.0400132
0.0470168
0.0535726
0.0597582
0.0656231
0.0711688
0.0763142
0.0809207
0.0847915
0.0881757
0.101187
0.091338
-0.0262729
-0.0155235
-0.0052804
0.00428391
0.013144
0.0213441
0.0289285
0.035944
0.0424459
0.0484953
0.0541491
0.059442
0.0643742
0.0688909
0.0729031
0.0762708
0.0790861
0.0807142
0.0817974
-0.0251242
-0.0153254
-0.00594799
0.00284395
0.0110182
0.018601
0.0256199
0.0321074
0.0381038
0.0436531
0.0487957
0.0535552
0.0579341
0.0618981
0.0653996
0.0683495
0.0707515
0.0723904
0.0733111
-0.0238119
-0.0149238
-0.00638604
0.00164624
0.0091369
0.0160992
0.0225486
0.0285067
0.0340016
0.0390637
0.0437204
0.0479865
0.0518665
0.0553403
0.0584094
0.0609905
0.0631278
0.0646388
0.0654561
-0.0223824
-0.0143633
-0.00663561
0.000654922
0.00747081
0.0138165
0.0196991
0.0251322
0.0301347
0.0347266
0.0389253
0.0427379
0.0461701
0.0492085
0.0520253
0.0543804
0.0560715
0.0574302
0.0584056
-0.0208741
-0.013682
-0.00673365
-0.000164219
0.00598966
0.0117269
0.0170497
0.0219663
0.0264889
0.0306301
0.0343994
0.0377973
0.04083
0.0434855
0.0460872
0.0483501
0.0498009
0.0507646
0.0518629
-0.0193156
-0.0129113
-0.00671211
-0.000842229
0.00466458
0.00980462
0.0145777
0.0189891
0.0230467
0.0267575
0.0301253
0.0331446
0.0358223
0.038138
0.0402906
0.0424763
0.0440306
0.0449659
0.0455615
-0.0177298
-0.0120769
-0.00659818
-0.0014062
0.00346978
0.008026
0.0122621
0.016182
0.0197909
0.0230914
0.0260831
0.028755
0.031119
0.0331214
0.0349529
0.0367564
0.0383698
0.0392709
0.0396619
-0.0161341
-0.0111993
-0.00641425
-0.00187883
0.00238365
0.00637136
0.0100853
0.013529
0.0167057
0.0196146
0.0222515
0.0245982
0.0266555
0.0284142
0.0299646
0.0312554
0.0330567
0.0338384
0.0336826
-0.014542
-0.0102947
-0.00617837
-0.00227847
0.00138886
0.00482495
0.00803291
0.0110161
0.0137761
0.0163094
0.0186093
0.0206535
0.0224378
0.0239653
0.0253013
0.0263994
0.0277266
0.0287253
0.0284912
-0.0129627
-0.00937536
-0.00590437
-0.00261924
0.000471959
0.00337415
0.00609229
0.00862932
0.0109852
0.0131555
0.0151311
0.0168859
0.0184221
0.0197386
0.0208887
0.0218246
0.0226782
0.0234496
0.0236238
-0.0114034
-0.00845029
-0.00560243
-0.00291152
-0.000377397
0.00200816
0.00425085
0.00635279
0.008313
0.010127
0.0117847
0.0132646
0.0145672
0.0156911
0.0166743
0.0174708
0.0181973
0.0186691
0.0189717
-0.00986737
-0.00752491
-0.00527927
-0.00316257
-0.00116748
0.000716171
0.00249382
0.00416704
0.00573513
0.00719492
0.00853845
0.00975112
0.0108305
0.0117758
0.0126087
0.0132893
0.0139086
0.0142962
0.0145633
-0.00835478
-0.0066011
-0.0049382
-0.0033779
-0.00190737
-0.000516003
0.000801566
0.00204777
0.00322366
0.00432873
0.00535945
0.00630778
0.00717002
0.00794514
0.00864171
0.00922616
0.00975818
0.0100885
0.0103362
-0.00685991
-0.00567773
-0.00458202
-0.00356492
-0.00260998
-0.00170624
-0.000847116
-2.77285e-05
0.000755958
0.00150668
0.00222609
0.00291058
0.00355835
0.00416684
0.00473619
0.00523794
0.00570176
0.00599747
0.00624692
-0.00537998
-0.00475779
-0.00421731
-0.00373351
-0.00328856
-0.00286963
-0.0024673
-0.00207314
-0.00167964
-0.00128058
-0.00087071
-0.000449176
-1.47874e-05
0.000428312
0.000876173
0.00130268
0.00171196
0.00199913
0.00224419
-0.00391241
-0.00384392
-0.00385156
-0.00389888
-0.00396565
-0.00403449
-0.00409151
-0.00412431
-0.00412185
-0.00407471
-0.00397478
-0.00381687
-0.00359738
-0.00331846
-0.00298634
-0.00262662
-0.00225121
-0.00195686
-0.00169648
-0.00243238
-0.00293224
-0.00350899
-0.00410927
-0.00470723
-0.00528055
-0.00581152
-0.0062842
-0.00668446
-0.00700003
-0.00721968
-0.00733495
-0.00733813
-0.00722609
-0.00700217
-0.00669195
-0.0063086
-0.00596281
-0.00557816
)
;

boundaryField
{
    leftWall
    {
        type            fixedFluxPressure;
        gradient        uniform 0;
        value           nonuniform List<scalar> 
50
(
6970.32
6983.57
7013.29
7058.7
7121.49
7190.81
7278.75
7435.33
3399.99
1464.11
1107.55
962.347
1012.03
1001.54
819.412
1086.84
1063.55
513.851
89.1614
42.5987
42.3927
71.5138
123.901
128.733
128.027
62.4557
-0.157898
0.237501
0.137371
0.0186092
0.0909903
0.0646307
0.0252524
-0.00535694
-0.0269259
-0.0417002
-0.0513596
-0.0574928
-0.0602989
-0.0601355
-0.0575276
-0.0473203
-0.0401789
-0.0332212
-0.0292578
-0.0255403
0.0437116
0.0626816
0.0624694
-0.00132957
)
;
    }
    rightWall
    {
        type            fixedFluxPressure;
        gradient        uniform 0;
        value           nonuniform List<scalar> 
50
(
2312.45
2001.32
1255.91
1162.07
1145.34
1167.8
1162.02
1129.11
1128.8
1152.09
1139.74
1024.64
727.102
113.293
0.838632
0.711572
0.58652
0.504848
0.44715
0.398057
0.358877
0.320988
0.285516
0.252901
0.224557
0.200309
0.17583
0.154614
0.139091
0.127566
0.125438
0.115812
0.091338
0.0817974
0.0733111
0.0654561
0.0584056
0.0518629
0.0455615
0.0396619
0.0336826
0.0284912
0.0236238
0.0189717
0.0145633
0.0103362
0.00624692
0.00224419
-0.00169648
-0.00557816
)
;
    }
    lowerWall
    {
        type            fixedFluxPressure;
        gradient        uniform 0;
        value           nonuniform List<scalar> 
62
(
6970.32
6900.37
6784.92
6630.85
6453.15
6268.72
6088.79
5919.3
5763.53
5608.39
5482.33
5376.78
5293.86
5235.81
5202.13
5189.4
5193.3
5210.63
5230.45
5252.19
5274.9
5297.65
5318.9
5318.9
5322.8
5329.77
5340.55
5363.97
3821.93
1497.73
1255.8
1309.77
1331.79
1308.01
1273.75
3519.52
3522.03
3450.62
2406.56
1705.73
1710.44
1320.83
1234.75
3519.52
3466.12
3381.56
3206.16
3021.75
2867.47
2794.73
2801.54
2859.84
2945.65
3060.34
3192.94
3275.98
3250.06
3038.8
2767.36
2527.31
2368.37
2312.45
)
;
    }
    atmosphere
    {
        type            totalPressure;
        rho             rho;
        psi             none;
        gamma           1;
        p0              uniform 0;
        value           nonuniform List<scalar> 
46
(
0
0
0
0
0
0
0
0
0
0
0
0
0
0
0
0
-5.25536e-06
-3.3783e-05
-7.20429e-05
-0.000112825
-0.000156685
-0.000218686
-0.00033451
-0.000474859
-0.000643142
-0.000860092
-0.00112796
-0.00166786
-0.00248917
-0.0033931
-0.00430164
-0.00518914
-0.00603414
-0.00681914
-0.00752759
-0.00814425
-0.00865574
-0.00904884
-0.00931376
-0.00943887
-0.00941437
-0.0092354
-0.00892321
-0.00847598
-0.00803964
-0.00732629
)
;
    }
    defaultFaces
    {
        type            empty;
    }
}


// ************************************************************************* //
