/*--------------------------------*- C++ -*----------------------------------*\
| =========                 |                                                 |
| \\      /  F ield         | OpenFOAM: The Open Source CFD Toolbox           |
|  \\    /   O peration     | Version:  2312                                  |
|   \\  /    A nd           | Website:  www.openfoam.com                      |
|    \\/     M anipulation  |                                                 |
\*---------------------------------------------------------------------------*/
FoamFile
{
    version     2.0;
    format      ascii;
    arch        "LSB;label=32;scalar=64";
    class       volScalarField;
    location    "2.3";
    object      alpha.galistan;
}
// * * * * * * * * * * * * * * * * * * * * * * * * * * * * * * * * * * * * * //

dimensions      [0 0 0 0 0 0 0];

internalField   nonuniform List<scalar> 
2268
(
1
1
1
1
1
1
1
1
1
1
1
1
1
1
1
1
1
1
1
1
0.999998
0.999945
0.99994
1
1
1
1
1
1
1
1
1
1
1
1
1
1
1
1
1
1
1
1
0.999999
0.999976
0.999961
0.999999
1
1
1
1
1
1
1
1
1
1
1
1
1
1
1
1
1
1
1
1
1
1
0.999946
1
1
1
0.999987
0.999998
1
1
1
1
1
1
1
1
1
1
1
1
0.999999
0.999999
1
0.999999
0.999942
0.999548
0.998834
0.998859
0.999219
0.999856
0.999999
1
1
1
1
1
1
0.999993
1
0.999999
0.999998
0.999989
0.999993
0.999999
0.999999
0.998014
0.984238
0.962999
0.87904
0.913257
0.962955
0.991967
0.999866
0.999864
0.999871
0.999891
0.999837
0.999793
0.999866
0.992829
0.954335
0.900587
0.841581
0.779153
0.703625
0.616983
0.537073
0.45449
0.382806
0.355206
0.357132
0.154523
0.199466
0.312536
0.455672
0.599726
0.67586
0.718237
0.707925
0.642953
0.549824
0.449842
0.333405
0.237435
0.16432
0.118769
0.0708388
0.0526166
0.0491477
0.0299498
0.0148535
0.00503064
0.00501202
0.0323413
4.18343e-27
1.06819e-11
6.27433e-06
1.7031e-06
0.00939628
0.0521593
0.047955
0.0247682
0.0177753
0.00701911
0.00112324
0.000513815
0.000460751
0.000417476
0.000392446
0.0163402
0.0121528
0.00721724
0.00809164
0.00649913
0.00642595
0.00498287
0.00488043
0.900757
0.921426
0.92145
0.923431
0.927671
0.927674
0.92768
0.927701
0.92659
0.927208
0.927209
0.928836
0.930012
0.943112
0.943908
0.94392
0.945672
0.945673
0.945673
0.845962
0.829834
0.850967
0.874638
0.880149
0.91335
0.927736
0.927719
0.886596
0.790581
0.744041
0.753972
0.732393
0.72238
0.755576
0.792206
0.843421
0.934144
0.905961
0.218416
0.225564
0.286048
0.404488
0.523577
0.652868
0.722221
0.664343
0.599932
0.569497
0.514367
0.385113
0.240813
0.23045
0.281274
0.396275
0.44612
0.589763
0.629027
0.0730444
0.0781457
0.0787667
0.0786477
0.131696
0.211859
0.331944
0.460624
0.446413
0.354351
0.197078
0.100317
0.117604
0.0860945
0.0846986
0.149073
0.231744
0.34874
0.51998
0.00310535
0.0186083
0.0477071
0.0484511
0.0430555
0.105968
0.14661
0.188582
0.131826
0.103887
0.10068
0.099574
0.108435
0.0830366
0.0336149
0.0217808
0.0338171
0.0306028
0.135887
0.000298787
3.86992e-06
3.81483e-06
0.00871542
0.00370799
5.17603e-06
0.0296423
0.0719559
0.0808125
0.0814551
0.0924509
0.0990476
0.0853949
0.0716452
0.0224434
0.0217812
0.022313
0.021225
0.00610587
0.0011414
0.00020348
2.28678e-05
7.20866e-06
7.91198e-06
9.89766e-07
0.000539838
0.0321978
0.0668315
0.0485669
0.0293486
0.0150971
0.00799167
0.0161052
0.0283351
0.0283874
0.0245808
0.00665259
0.00610587
0.00113632
0.000409586
0.00024022
0.000100933
5.85425e-05
1.44384e-06
1.26429e-05
0.014363
0.0631927
0.0193921
0.00603366
0.00603828
0.00803178
0.0130148
0.0285835
0.0259496
0.0042516
0.00426551
0.00801615
-4.21612e-25
3.10746e-05
0.000205545
2.49389e-05
2.22695e-05
0.000572334
0.000566329
0.000537123
0.000177891
1.18663e-05
7.39683e-06
1.37055e-05
1.3657e-05
0.00428956
0.00933558
0.00923913
0.00905556
0.00146622
0.000698676
0.000626423
0.000534396
0.000732028
1.6055e-05
4.13393e-07
0.000299023
0.00211202
0.00173045
6.60198e-05
0.00011639
0.000127348
4.89916e-05
9.93304e-07
9.53069e-07
1.53107e-06
5.54159e-06
0.000218187
0.00228459
0.00287803
0.00246569
0.00168754
0.0011826
0.000958253
0.000553147
3.91656e-05
1.60499e-05
1.6051e-05
5.76998e-06
1.60904e-05
4.62952e-05
0.000526495
0.000765019
0.000558393
1.45652e-06
1.33712e-06
1.22204e-06
1.99536e-06
1.93481e-05
3.56067e-05
0.000104335
8.86258e-05
5.11589e-05
0.000170478
0.00259428
0.00529262
0.00529261
0.00488399
0.000665864
1.60496e-05
1.605e-05
2.71836e-06
1.07318e-05
3.06693e-05
4.15898e-06
0.00057317
0.000718413
0.000507725
1.4534e-06
2.00309e-05
3.14324e-05
7.51947e-06
6.8979e-06
2.86621e-05
3.25866e-05
3.50038e-05
3.51273e-05
0.00203671
0.0052918
0.00529264
0.00528553
0.00291748
1.605e-05
5.88245e-05
2.71834e-06
2.71834e-06
1.34361e-05
4.28229e-06
3.55212e-05
0.000407592
0.000473287
0.000169834
3.07622e-05
3.4256e-05
1.0217e-05
1.74009e-06
1.21352e-05
4.88051e-05
4.79002e-05
4.09903e-05
0.00018637
0.000584331
0.00143229
0.00141449
0.00116578
0.000948944
0.00108
2.71833e-06
2.72005e-06
2.71834e-06
2.72066e-06
2.71834e-06
9.70721e-05
0.000105113
0.000146261
3.65899e-05
1.36667e-05
1.03341e-05
1.12916e-05
1.44257e-05
1.61039e-05
3.70251e-05
2.7007e-05
2.08505e-06
5.46166e-05
8.88651e-05
0.000129138
0.000160467
0.000418875
0.00147599
3.19107e-05
3.98218e-06
1.26711e-05
1.15182e-05
2.95114e-06
3.04532e-06
3.08339e-06
4.15511e-05
1.37279e-05
1.36519e-05
5.34572e-05
0.000120152
7.36867e-05
1.25154e-05
3.79107e-06
2.24529e-06
2.14567e-06
3.30086e-05
0.000278748
0.000215075
0.000383391
0.00275609
0.0142863
0.000265715
2.27595e-06
1.57634e-05
1.57469e-05
2.97868e-06
3.25775e-06
3.09146e-06
7.17247e-05
0.000142532
0.000147187
0.000147985
0.000147969
5.17527e-05
5.01023e-06
4.19815e-06
3.76268e-06
1.18897e-05
3.0322e-05
0.000398303
0.00239954
0.00530459
0.0120138
0.0174119
0.00105133
1.43195e-06
8.07242e-06
7.10758e-06
5.17376e-06
2.66727e-05
5.50864e-05
7.20982e-05
6.811e-05
7.62437e-05
0.000106253
6.09051e-05
1.68215e-05
2.3501e-05
6.37217e-05
0.000120333
0.000447198
0.00103575
0.00176354
0.00551503
0.00715044
0.00579645
0.00409185
0.00301118
1.4212e-06
4.13037e-06
1.09115e-05
5.24656e-06
5.55242e-06
5.86874e-06
6.04598e-06
8.90919e-06
1.72402e-05
3.29227e-05
1.8155e-05
2.22206e-05
0.000178293
0.000258346
0.00025081
0.000666034
0.00158726
0.00129546
0.00038052
0.000217369
3.76692e-09
1.96708e-07
0.00394765
0.00155086
1.59771e-09
0.000199592
0.000779616
0.00117662
0.00182155
0.00848615
0.0114153
0.0114175
0.00915695
0.00304955
0.000718142
0.000280744
6.15568e-05
1.53745e-05
2.49729e-07
2.50329e-07
1.09702e-09
2.44918e-10
2.61198e-09
4e-09
9.53083e-07
0.00599948
0.00493052
1.55484e-09
1.59769e-09
0.000235237
0.00276699
0.0045868
0.0045961
0.00247418
0.00099028
0.000144655
3.82888e-08
3.40713e-08
3.39803e-08
3.42545e-08
5.17843e-06
8.07661e-06
8.02576e-06
2.24099e-06
1.21589e-06
8.75507e-07
2.01285e-07
8.44126e-07
0.00525755
0.00763771
0.00345
1.55295e-09
0.000109678
0.000544316
0.000432822
3.79829e-05
2.93295e-08
2.94134e-08
2.96163e-08
1.99131e-07
2.16694e-07
1.05476e-07
3.41967e-08
3.4459e-08
4.43265e-08
1.87661e-06
9.05744e-06
1.04198e-05
1.03607e-05
1.64839e-06
7.65075e-09
0.00155858
0.00758526
0.00754364
0.00540699
0.000444498
1.60829e-07
1.64515e-07
2.64967e-07
8.53606e-08
8.94859e-08
6.01792e-08
3.66289e-08
2.19678e-08
1.34119e-08
5.09548e-08
6.49932e-08
3.90662e-08
1.72018e-13
1.52963e-22
-5.40692e-13
-3.44579e-13
8.42048e-08
6.00732e-09
4.30987e-05
0.000774992
0.00562289
0.00496154
0.000799721
1.35465e-05
1.33804e-06
1.52858e-07
3.89698e-07
3.9453e-07
3.94509e-07
2.20503e-07
5.63621e-08
1.22482e-08
4.13494e-09
7.53138e-09
1.25998e-08
6.25046e-09
4.18001e-09
2.35129e-09
1.46266e-09
1.27526e-09
1.25033e-09
4.32582e-05
3.5485e-05
0.000116593
0.000189108
0.000264031
3.22708e-05
1.50554e-06
9.70898e-08
1.11095e-07
2.82647e-07
3.76183e-07
3.51493e-07
2.24794e-07
5.1806e-08
6.99837e-09
1.5835e-08
2.58074e-08
2.61203e-08
1.18375e-08
4.17169e-09
2.25741e-09
1.59329e-09
1.37331e-09
1.38694e-05
4.36589e-05
3.27309e-05
1.46942e-06
1.04117e-10
8.16333e-06
2.06003e-07
2.858e-08
1.53765e-09
1.54885e-09
6.70862e-08
6.52674e-08
4.89248e-08
4.47339e-08
1.62542e-08
1.96745e-08
2.85999e-08
2.85981e-08
1.66772e-08
4.5702e-09
1.6999e-09
1.02863e-09
8.991e-10
1.11606e-05
0.000714648
0.000494942
1.42167e-05
2.94746e-11
3.0999e-11
3.11477e-08
4.99048e-09
4.74292e-09
6.78682e-09
1.17488e-09
6.75168e-10
6.41829e-10
6.55779e-10
3.51891e-09
6.50533e-09
1.38627e-08
9.64199e-09
4.40627e-09
1.59428e-09
6.61745e-10
4.85715e-10
4.41729e-10
0.000172032
0.000945652
0.000778642
1.66265e-05
3.09397e-11
3.2714e-10
6.22697e-09
2.65236e-09
2.77211e-08
1.69125e-08
3.64291e-09
1.01272e-09
6.61887e-10
6.82643e-10
1.24121e-09
1.60053e-09
1.14865e-09
1.30314e-09
1.05115e-09
6.4178e-10
3.60949e-10
2.43357e-10
2.48519e-10
0.00094916
0.000941136
0.000683833
3.69686e-05
2.94746e-11
4.16054e-10
2.80704e-09
2.07578e-08
3.25136e-08
1.70654e-08
3.5048e-09
1.13478e-09
7.80342e-10
8.84243e-10
8.1207e-10
5.3459e-10
2.8878e-10
1.75055e-10
1.47104e-10
1.2703e-10
1.28781e-10
1.2541e-10
1.20753e-10
0.000928219
0.000147308
6.97928e-05
1.53905e-05
3.094e-11
5.29282e-10
4.32567e-09
3.32186e-08
3.04972e-08
8.37778e-09
1.68644e-09
8.30527e-10
6.3167e-10
5.6375e-10
4.62472e-10
3.3311e-10
2.27263e-10
1.5797e-10
1.1211e-10
7.6817e-11
6.39044e-11
5.06244e-11
4.23322e-11
0.000138344
4.05853e-05
5.33259e-08
1.62962e-06
4.56285e-09
9.96763e-10
2.57773e-08
3.31809e-08
1.1362e-08
1.90521e-09
7.88877e-10
4.59808e-10
3.43312e-10
2.6415e-10
1.91804e-10
1.29817e-10
8.51144e-11
5.85045e-11
4.21974e-11
3.13301e-11
2.12639e-11
1.68098e-11
1.39085e-11
4.02205e-09
4.03503e-09
5.37747e-08
9.83821e-08
1.09196e-07
1.18946e-09
2.67048e-08
1.65333e-08
2.73492e-09
1.07067e-09
4.57484e-10
2.34913e-10
1.57882e-10
1.09428e-10
6.98667e-11
4.28597e-11
2.76031e-11
1.90703e-11
1.3594e-11
1.0505e-11
7.60437e-12
4.45967e-12
3.58093e-12
4.21086e-09
8.29027e-09
1.06609e-07
1.3494e-07
1.58032e-07
4.40181e-09
1.31289e-08
3.99205e-09
1.17669e-09
4.9393e-10
1.96649e-10
1.0298e-10
6.31934e-11
3.81827e-11
2.19916e-11
1.25431e-11
7.85046e-12
5.33005e-12
3.85424e-12
2.88501e-12
1.73279e-12
9.90664e-13
8.30624e-13
7.12525e-09
1.19157e-08
8.4284e-08
8.95706e-08
8.46766e-08
5.73511e-09
3.69896e-09
1.31038e-09
5.02849e-10
1.88354e-10
7.96898e-11
4.01814e-11
2.18264e-11
1.17203e-11
6.06472e-12
3.2665e-12
1.86166e-12
1.21651e-12
8.29734e-13
5.94779e-13
3.48802e-13
1.79628e-13
1.48473e-13
2.2188e-08
7.81924e-09
2.99671e-08
5.05146e-08
1.68514e-08
4.47794e-09
1.60147e-09
6.04545e-10
2.28314e-10
8.179e-11
2.74662e-11
1.18467e-11
6.09483e-12
2.95598e-12
1.40524e-12
6.87589e-13
3.75728e-13
2.30857e-13
1.5043e-13
9.29533e-14
5.31097e-14
3.08287e-14
2.31446e-14
4.41053e-08
1.87429e-09
1.71461e-09
4.19341e-09
5.13135e-09
2.17081e-09
8.52973e-10
3.20639e-10
1.05381e-10
2.31302e-11
5.28543e-12
1.82652e-12
9.28812e-13
4.85858e-13
2.51234e-13
1.3164e-13
6.88966e-14
3.71295e-14
2.11441e-14
1.32734e-14
7.39275e-15
3.39062e-15
3.04932e-15
6.14732e-08
3.11842e-09
5.96176e-10
1.07627e-09
2.24571e-09
1.36915e-09
5.69321e-10
1.93624e-10
4.78225e-11
9.24802e-12
2.50992e-12
1.07424e-12
5.2252e-13
2.59927e-13
1.25061e-13
5.66969e-14
2.42205e-14
1.01104e-14
4.26464e-15
1.9567e-15
8.88151e-16
3.81032e-16
3.30266e-16
6.14634e-08
1.18829e-08
5.96499e-10
6.06328e-10
6.06971e-10
1.17657e-09
4.58608e-10
1.29865e-10
2.70851e-11
6.08673e-12
2.54844e-12
1.43836e-12
8.12635e-13
4.4867e-13
2.22819e-13
9.85017e-14
3.79982e-14
1.29493e-14
4.01988e-15
1.16781e-15
3.36271e-16
8.14799e-17
3.69622e-17
4.52195e-08
8.93269e-09
7.52062e-10
6.06934e-10
1.26497e-08
9.95519e-09
4.63404e-10
1.14323e-10
2.21044e-11
6.3175e-12
4.22403e-12
2.84694e-12
1.82013e-12
1.08813e-12
5.55524e-13
2.46096e-13
9.22006e-14
3.04062e-14
8.79121e-15
2.23546e-15
5.23898e-16
9.55806e-17
1.39762e-17
8.59878e-09
-5.88361e-11
-8.01529e-15
5.17505e-07
3.7648e-07
3.20311e-09
2.87843e-10
1.07718e-10
2.44224e-11
9.56478e-12
9.19835e-12
6.10773e-12
4.18327e-12
2.59269e-12
1.3554e-12
5.9561e-13
2.19274e-13
7.11939e-14
2.00346e-14
4.83427e-15
1.04832e-15
1.85203e-16
2.23572e-17
1.46677e-09
0.000187628
9.79878e-05
1.4737e-06
6.42881e-08
7.86712e-09
6.25667e-10
1.05469e-10
3.7629e-11
2.49347e-11
2.40111e-11
1.38949e-11
9.20165e-12
5.74505e-12
2.99856e-12
1.28137e-12
4.71718e-13
1.50964e-13
4.13845e-14
9.63642e-15
2.07765e-15
3.22618e-16
3.91617e-17
0.000482681
0.000541473
0.000271073
3.93637e-10
1.31122e-08
1.96429e-09
2.67898e-10
9.07768e-11
6.69314e-11
7.19279e-11
6.44169e-11
3.22956e-11
1.94154e-11
1.13224e-11
5.73071e-12
2.43211e-12
8.91084e-13
2.83387e-13
7.60582e-14
1.7019e-14
3.29292e-15
5.06902e-16
5.9891e-17
0.000617517
0.000493413
8.89234e-05
4.81585e-10
1.48544e-09
3.91841e-10
1.43777e-10
1.02671e-10
1.19801e-10
1.50917e-10
1.26312e-10
6.75379e-11
3.75505e-11
1.9489e-11
9.52749e-12
3.9656e-12
1.44567e-12
4.63114e-13
1.22279e-13
2.67091e-14
5.62565e-15
7.69726e-16
8.05615e-17
0.000435953
8.3405e-05
4.86618e-10
1.79054e-09
2.9032e-10
2.15768e-10
1.3911e-10
1.50132e-10
2.20446e-10
2.7107e-10
2.55578e-10
1.55385e-10
6.83254e-11
3.46027e-11
1.54525e-11
6.48637e-12
2.40851e-12
7.27325e-13
1.80449e-13
3.50023e-14
6.57964e-15
8.91408e-16
8.19767e-17
3.32574e-06
1.98137e-08
4.78891e-10
8.77061e-10
2.8578e-10
1.71885e-10
1.68486e-10
2.27389e-10
3.85169e-10
4.67244e-10
4.40668e-10
2.63823e-10
1.02525e-10
4.50886e-11
1.87951e-11
7.72893e-12
2.75061e-12
7.91213e-13
1.89293e-13
3.50103e-14
6.23437e-15
7.87693e-16
7.92338e-17
6.13136e-09
4.15893e-09
4.73854e-10
4.70473e-10
2.13196e-10
1.80722e-10
2.2427e-10
3.89003e-10
6.32932e-10
7.35736e-10
6.2232e-10
3.111e-10
1.16272e-10
4.76824e-11
1.90275e-11
7.69654e-12
2.55239e-12
6.75827e-13
1.49621e-13
2.60001e-14
4.17472e-15
4.17743e-16
2.903e-17
2.3593e-09
1.45253e-09
5.50141e-10
2.417e-10
1.95119e-10
2.15161e-10
3.3341e-10
7.21119e-10
9.56677e-10
9.8073e-10
7.38549e-10
2.94309e-10
1.11447e-10
4.14256e-11
1.66039e-11
5.95559e-12
1.68739e-12
3.9018e-13
7.32186e-14
1.1524e-14
1.42952e-15
1.32687e-16
9.96828e-18
8.07661e-09
1.91314e-09
4.04025e-10
1.82892e-10
2.51656e-10
3.69535e-10
6.10117e-10
1.11783e-09
1.48474e-09
1.33766e-09
6.55456e-10
2.21199e-10
8.58833e-11
3.42358e-11
1.17921e-11
3.34318e-12
7.64347e-13
1.36724e-13
2.08015e-14
2.53718e-15
2.60839e-16
1.87321e-17
9.53206e-19
1.10127e-08
3.17404e-09
4.23144e-10
7.79928e-10
1.18023e-09
9.3484e-10
1.69836e-09
2.39153e-09
2.18487e-09
1.26936e-09
4.63249e-10
1.61284e-10
5.47683e-11
1.91315e-11
5.61881e-12
1.2017e-12
1.88345e-13
2.41739e-14
2.62099e-15
2.60082e-16
1.97649e-17
1.33641e-18
7.82678e-20
1.21193e-08
6.47327e-09
1.17959e-09
1.99072e-09
2.25925e-09
3.47062e-09
4.36966e-09
3.55188e-09
2.11536e-09
9.09449e-10
2.99528e-10
1.02608e-10
3.91177e-11
1.08534e-11
2.07007e-12
2.74914e-13
2.68465e-14
2.0773e-15
1.44723e-16
9.61559e-18
6.23141e-19
3.16069e-20
1.53494e-21
1.11452e-08
1.09725e-08
8.27322e-09
8.4687e-09
8.33944e-09
7.40996e-09
4.71716e-09
2.74989e-09
1.2421e-09
4.39274e-10
1.27704e-10
4.91597e-11
1.35613e-11
2.52168e-12
3.03005e-13
2.37685e-14
1.30597e-15
5.67739e-17
2.28502e-18
9.48407e-20
4.06071e-21
1.63369e-22
5.88634e-24
2.02616e-05
0.000110548
0.000246718
0.000243908
0.000122689
0.00155945
0.0027788
0.00394376
0.00051917
0.0062639
0.00776739
0.00778152
0.000851826
0.00196941
0.00265455
0.00463591
0.00185911
0.00452392
0.0138952
0.0170746
0.00822738
0.0187484
0.0199996
0.0200064
0.0199991
0.0199996
0.0200064
0.0200068
0.0185917
0.019299
0.0199153
0.01964
0.00467316
0.00298066
0.00169628
0.000724243
4.99229e-08
4.19334e-08
2.93628e-06
1.57164e-05
2.65455e-06
2.6057e-06
6.42117e-07
2.11129e-08
1.76583e-06
8.77914e-07
1.60967e-07
2.04688e-08
7.33963e-08
2.08705e-08
3.62214e-08
6.35481e-07
3.12079e-09
9.70913e-10
6.30493e-07
3.16444e-06
1.25528e-09
9.41343e-10
7.00493e-10
7.09499e-10
1.38303e-09
1.37975e-09
1.23334e-09
1.36148e-09
8.59089e-10
8.00528e-10
8.0936e-10
8.29967e-10
4.37518e-10
4.57572e-10
4.55681e-10
4.43828e-10
2.48319e-10
2.32737e-10
2.20896e-10
2.18624e-10
1.13938e-10
1.0503e-10
9.79189e-11
8.53062e-11
3.81127e-11
3.16777e-11
2.82427e-11
2.64296e-11
1.18386e-11
9.92937e-12
8.74554e-12
7.56955e-12
3.00217e-12
2.38211e-12
2.1249e-12
2.02212e-12
6.22561e-13
5.05725e-13
4.84109e-13
4.85528e-13
1.15749e-13
8.80937e-14
8.50711e-14
1.01772e-13
1.92595e-14
1.5122e-14
1.69356e-14
1.92208e-14
2.60786e-15
1.95749e-15
2.14027e-15
3.15767e-15
3.185e-16
2.54886e-16
3.18186e-16
4.11334e-16
3.38301e-17
2.63731e-17
3.15556e-17
5.77848e-17
6.62511e-18
4.39531e-18
4.56916e-18
7.68612e-18
5.31796e-18
1.90569e-18
7.67957e-19
1.72577e-18
8.95827e-18
2.32857e-18
3.34538e-19
5.89243e-19
1.16702e-17
2.58199e-18
3.05873e-19
2.0728e-19
1.28873e-17
2.56301e-18
3.3269e-19
7.88334e-20
1.30904e-17
2.22469e-18
3.17379e-19
2.38747e-20
1.15586e-17
1.66013e-18
1.9948e-19
6.75888e-21
3.92088e-18
4.69055e-19
4.52591e-20
1.227e-21
1.15092e-18
1.35062e-19
7.60585e-21
1.56321e-22
9.10446e-20
9.44321e-21
1.53232e-22
1.56541e-23
7.13371e-21
6.0038e-22
3.73687e-24
1.74072e-24
1.27356e-22
5.98395e-24
6.83286e-26
1.85884e-25
3.72582e-25
3.17472e-27
4.86774e-27
1.61912e-26
0.000490965
0.00119727
0.000560286
0.000188264
3.5874e-05
1.87351e-05
0.000309048
0.0140599
0.0272525
0.0197134
0.0110348
0.0202973
0.0257836
0.0299657
0.0288772
0.00452557
0.00427817
0.00946861
0.0121613
0.00631302
0.00777612
0.00430729
1.27664e-08
5.64224e-08
0.000259314
0.00154507
0.0120268
0.0123405
0.0143433
0.0215481
0.0280305
0.0326783
0.0337093
0.0174199
0.00318189
0.0101957
0.0177159
0.0124184
0.00777953
0.00777774
0.00619387
1.26572e-08
1.48361e-08
0.000140824
0.000644806
0.00107227
0.00116435
0.00206127
0.000908599
0.000926603
0.00358273
0.0115767
0.00279534
0.00319701
0.0171949
0.0199951
0.0199965
0.00631308
0.00744736
0.00383216
2.63238e-07
2.31593e-05
0.000584893
0.00101636
0.000390303
0.000538641
0.00267443
0.00337314
0.00124968
0.00124333
0.00458647
0.00278575
0.00278593
0.00980291
0.0188738
0.0199964
0.0130306
0.00519119
0.00194823
4.34285e-07
0.000115456
0.00183729
0.0112468
0.0122567
0.0122663
0.0109837
0.00824886
0.00509075
0.00216676
0.00266417
0.00487958
0.00278756
0.00388655
0.013907
0.0182184
0.0199996
0.004886
8.80117e-10
5.6111e-06
0.000167926
0.00327075
0.0105955
0.0117569
0.00918502
0.00408432
0.00218571
0.00110974
0.00122043
0.0015554
0.00513719
0.00513467
0.00372567
0.00281385
0.0180062
0.0197746
0.00540155
8.7366e-10
0.000918296
0.00482364
0.00482843
0.00304374
0.000649999
9.71696e-05
8.84268e-06
8.17672e-08
-2.42928e-22
3.62067e-27
6.2333e-28
-7.12396e-12
0.000143662
4.92005e-05
0.00193861
0.0111194
0.0137668
0.00670888
0.000170422
0.00107958
0.000833859
0.000320434
2.80854e-07
1.08906e-07
1.92531e-07
4.26615e-06
3.3732e-06
1.37086e-06
2.34465e-07
2.4471e-08
4.8436e-15
4.99844e-15
6.69479e-15
2.70334e-14
2.87293e-07
0.000671177
0.00130401
0.000617733
0.000195781
2.87695e-07
2.9774e-07
5.13149e-07
8.17427e-06
1.44587e-05
1.52371e-05
8.56938e-06
2.9441e-06
5.35716e-07
4.75158e-08
7.48719e-10
7.04903e-08
2.82484e-07
2.80743e-07
2.70651e-07
1.47109e-05
1.0096e-14
-2.34605e-25
-1.79342e-09
3.14686e-07
5.95223e-07
1.31808e-06
1.05524e-05
2.03454e-05
2.11538e-05
2.11494e-05
1.90681e-06
5.3186e-07
1.18835e-05
2.10925e-06
1.20793e-07
5.74883e-07
5.90915e-07
3.68521e-07
2.6546e-08
5.58779e-07
1.44023e-06
2.04989e-06
4.61573e-06
4.59509e-06
1.75566e-06
1.81338e-10
4.2236e-08
1.21714e-05
2.06909e-05
9.76201e-06
1.27173e-05
2.30933e-05
1.40773e-05
2.84368e-07
2.0679e-07
5.91613e-07
4.63553e-07
1.37334e-07
8.87427e-07
2.72627e-06
4.9229e-06
4.92301e-06
4.04864e-06
1.8899e-06
1.77276e-10
1.5453e-10
1.52602e-10
1.88065e-06
2.31145e-05
2.30933e-05
2.31187e-05
2.11773e-05
3.60618e-06
6.33213e-10
1.81155e-07
3.25391e-07
1.98797e-06
3.29308e-06
3.41059e-06
2.64698e-06
8.43286e-07
1.34114e-09
1.93435e-11
1.07984e-07
8.18666e-09
2.16111e-10
4.34076e-11
1.39751e-06
6.57884e-06
9.2944e-06
2.03929e-05
3.12889e-06
3.92483e-10
4.40721e-08
1.37416e-07
3.63607e-06
3.56929e-06
2.75103e-06
4.26247e-07
1.33464e-10
1.47543e-10
3.77771e-10
4.88712e-10
6.55373e-10
6.90795e-10
2.15592e-10
1.34003e-11
1.32907e-11
1.34003e-11
4.3971e-06
1.95216e-06
3.92447e-10
3.91125e-10
3.90894e-10
7.68947e-10
7.08827e-10
6.9904e-10
7.08586e-10
1.18111e-09
1.32462e-09
1.15614e-09
6.47668e-10
9.64776e-10
9.63365e-10
3.42119e-10
6.27587e-11
1.38754e-10
4.00692e-10
5.71799e-10
1.17367e-06
3.87319e-10
1.02275e-09
1.38783e-09
1.36604e-09
1.03311e-09
8.7335e-10
9.38626e-10
1.43853e-09
1.43114e-09
1.15029e-09
7.02609e-10
8.6929e-10
5.87094e-10
1.90719e-10
1.41339e-10
7.36451e-10
2.0433e-09
2.15799e-08
6.69475e-08
3.90117e-10
1.40501e-09
2.57612e-09
7.78032e-10
7.52798e-10
5.46845e-10
4.39401e-10
5.95723e-10
6.6752e-10
5.44546e-10
3.68775e-10
2.9427e-10
1.94901e-10
6.52374e-11
2.61612e-10
1.02529e-09
9.76466e-10
3.55146e-10
3.10323e-10
4.894e-10
1.60506e-09
3.20493e-09
4.23291e-10
3.59711e-10
2.60389e-10
1.80908e-10
1.76023e-10
1.99578e-10
1.8833e-10
1.19775e-10
6.44445e-11
5.57404e-11
4.07955e-11
2.42826e-10
1.02549e-09
1.14532e-09
5.34298e-10
3.0952e-10
5.86804e-10
1.68838e-09
3.39872e-09
1.97102e-10
1.47168e-10
1.02838e-10
8.6764e-11
7.42656e-11
7.33312e-11
7.1137e-11
5.54711e-11
4.16303e-11
4.0834e-11
3.59748e-11
9.84465e-11
5.10535e-10
7.52341e-10
2.70564e-10
2.34542e-10
5.55049e-10
1.70059e-09
3.39872e-09
7.17394e-11
5.38879e-11
4.4111e-11
4.25561e-11
3.97839e-11
3.87792e-11
3.84126e-11
3.32461e-11
3.29647e-11
3.26482e-11
2.76315e-11
2.67595e-11
4.53687e-11
7.93192e-11
9.54815e-11
1.33585e-10
4.09773e-10
1.76971e-09
3.39873e-09
2.1785e-11
1.79523e-11
1.89722e-11
2.07722e-11
2.19086e-11
2.18863e-11
2.10543e-11
1.97385e-11
1.80255e-11
1.75862e-11
1.86695e-11
1.74606e-11
1.72595e-11
2.15639e-11
3.46093e-11
7.15221e-11
3.26512e-10
1.93862e-09
3.37817e-09
6.62197e-12
6.81488e-12
7.95756e-12
9.11652e-12
9.88918e-12
9.94858e-12
9.50925e-12
9.3096e-12
9.50494e-12
8.91163e-12
1.07199e-11
9.67594e-12
1.04445e-11
1.33145e-11
1.93951e-11
5.13267e-11
3.16604e-10
1.83254e-09
2.66168e-09
2.09598e-12
2.53895e-12
3.10631e-12
3.60199e-12
3.92783e-12
4.02223e-12
3.93275e-12
3.96778e-12
4.0849e-12
4.00316e-12
3.02408e-12
4.7878e-12
5.71261e-12
8.30864e-12
1.42623e-11
3.82234e-11
2.27784e-10
1.8278e-09
2.09573e-09
6.07681e-13
8.16713e-13
1.12421e-12
1.33651e-12
1.42798e-12
1.38978e-12
1.45012e-12
1.53524e-12
1.69763e-12
1.75986e-12
1.44335e-12
2.33759e-12
4.01678e-12
6.98329e-12
1.42717e-11
3.87556e-11
1.69345e-10
1.82881e-09
1.94042e-09
1.56576e-13
2.59344e-13
3.52246e-13
4.14209e-13
4.65236e-13
5.01154e-13
5.21779e-13
5.77878e-13
6.58362e-13
8.79669e-13
1.15299e-12
2.13473e-12
3.86476e-12
8.38014e-12
1.96467e-11
5.46362e-11
2.63076e-10
1.84442e-09
1.8459e-09
3.42304e-14
6.39722e-14
9.81111e-14
1.34159e-13
1.5569e-13
1.67991e-13
1.87764e-13
2.26679e-13
3.35491e-13
6.08786e-13
1.19847e-12
2.63315e-12
5.83245e-12
1.33147e-11
2.91687e-11
7.61462e-11
4.18923e-10
1.84917e-09
1.76381e-09
6.65032e-15
1.48006e-14
2.46843e-14
3.36797e-14
4.44635e-14
5.65137e-14
7.47251e-14
1.24438e-13
2.5474e-13
5.88875e-13
1.44593e-12
3.48651e-12
8.15099e-12
1.97265e-11
5.12556e-11
1.33178e-10
5.48759e-10
1.8889e-09
1.47785e-09
1.03031e-15
2.62533e-15
4.85651e-15
8.51555e-15
1.31734e-14
2.15903e-14
4.18459e-14
9.63316e-14
2.41729e-13
6.15812e-13
1.54763e-12
3.8104e-12
9.02893e-12
2.65044e-11
8.20829e-11
2.33399e-10
7.23968e-10
1.88878e-09
1.11477e-09
2.00722e-16
5.12038e-16
1.14675e-15
2.36276e-15
5.12301e-15
1.23941e-14
3.20522e-14
8.67334e-14
2.31475e-13
5.99171e-13
1.51859e-12
3.80987e-12
9.22035e-12
2.81354e-11
1.08944e-10
3.06747e-10
8.54645e-10
1.82127e-09
8.09635e-10
3.69478e-17
1.2886e-16
3.57034e-16
1.05417e-15
3.13843e-15
9.20294e-15
2.65063e-14
7.48279e-14
2.01651e-13
5.25838e-13
1.36235e-12
3.539e-12
9.05384e-12
2.715e-11
1.15636e-10
3.46957e-10
8.64269e-10
1.30538e-09
6.89421e-10
1.19704e-17
5.45683e-17
1.90914e-16
6.62357e-16
2.20115e-15
6.85464e-15
2.00415e-14
5.67738e-14
1.53693e-13
4.07511e-13
1.09118e-12
2.98437e-12
8.22678e-12
2.25031e-11
9.12377e-11
3.45325e-10
7.87513e-10
9.78361e-10
5.17062e-10
5.51828e-18
2.81685e-17
1.05324e-16
4.07709e-16
1.39969e-15
4.32964e-15
1.28711e-14
3.65948e-14
1.00581e-13
2.74145e-13
7.67441e-13
2.21946e-12
6.42895e-12
1.8047e-11
5.62378e-11
2.40741e-10
6.00311e-10
7.47132e-10
3.49409e-10
2.39334e-18
1.17397e-17
5.06229e-17
1.92096e-16
7.10843e-16
2.26385e-15
6.90089e-15
1.9594e-14
5.44177e-14
1.55458e-13
4.64213e-13
1.44649e-12
4.45969e-12
1.23343e-11
3.12382e-11
1.24332e-10
4.06812e-10
5.23128e-10
1.81172e-10
8.29068e-19
4.39729e-18
1.99018e-17
7.89984e-17
2.87771e-16
9.52633e-16
2.74378e-15
8.38756e-15
2.48687e-14
7.74094e-14
2.50382e-13
8.43627e-13
2.75082e-12
7.74551e-12
1.87167e-11
5.24745e-11
1.71979e-10
3.11741e-10
9.9654e-11
1.93178e-19
1.23802e-18
6.08309e-18
2.63481e-17
9.83465e-17
3.18192e-16
9.60101e-16
2.83434e-15
8.93737e-15
3.0424e-14
1.097e-13
4.17113e-13
1.46223e-12
4.23668e-12
1.03623e-11
2.15705e-11
5.68383e-11
1.34407e-10
5.30478e-11
4.33433e-20
2.76447e-19
1.40542e-18
6.17267e-18
2.42227e-17
8.12415e-17
2.5937e-16
8.59657e-16
2.88627e-15
1.06825e-14
4.38125e-14
1.80641e-13
6.68949e-13
2.13222e-12
5.29463e-12
1.16222e-11
2.36044e-11
4.68049e-11
2.89193e-11
7.58583e-21
4.53873e-20
2.37338e-19
1.08142e-18
4.15909e-18
1.43284e-17
5.0554e-17
1.82804e-16
6.96245e-16
3.00103e-15
1.42985e-14
6.85643e-14
2.81225e-13
9.09236e-13
2.41117e-12
5.28999e-12
9.96633e-12
1.62831e-11
1.52002e-11
8.66083e-22
5.69043e-21
2.84868e-20
1.25871e-19
5.01887e-19
1.82708e-18
6.98242e-18
2.80961e-17
1.25546e-16
6.30354e-16
3.54184e-15
2.01302e-14
9.28499e-14
3.22469e-13
8.83608e-13
1.92056e-12
3.5064e-12
5.20234e-12
6.46661e-12
9.96695e-23
5.10351e-22
2.11149e-21
8.15227e-21
3.2304e-20
1.2693e-19
5.8643e-19
3.07393e-18
1.71089e-17
1.07465e-16
7.05103e-16
4.69295e-15
2.44528e-14
9.31026e-14
2.68684e-13
6.14388e-13
1.11206e-12
1.94478e-12
2.75674e-12
8.49051e-24
3.51665e-23
1.26261e-22
5.24794e-22
2.46243e-21
1.29294e-20
7.3072e-20
4.37725e-19
2.90004e-18
1.98726e-17
1.43506e-16
1.04088e-15
5.84861e-15
2.30682e-14
6.74592e-14
1.56612e-13
2.50647e-13
6.09256e-13
8.80703e-13
6.16246e-25
1.89547e-24
5.77307e-24
2.41616e-23
1.40677e-22
9.41702e-22
6.8229e-21
5.01844e-20
4.00629e-19
3.10307e-18
2.3908e-17
1.63685e-16
9.86495e-16
4.24464e-15
1.38627e-14
3.40977e-14
5.18374e-14
1.36831e-13
1.23825e-13
3.50975e-26
7.66196e-26
1.8913e-25
8.66871e-25
6.25988e-24
5.00956e-23
4.27166e-22
4.081e-21
3.71571e-20
2.98697e-19
2.27033e-18
1.45795e-17
8.79829e-17
4.03168e-16
1.38806e-15
3.63186e-15
7.14788e-15
1.18671e-14
7.95759e-16
)
;

boundaryField
{
    leftWall
    {
        type            zeroGradient;
    }
    rightWall
    {
        type            zeroGradient;
    }
    lowerWall
    {
        type            zeroGradient;
    }
    atmosphere
    {
        type            inletOutlet;
        inletValue      uniform 0;
        value           nonuniform List<scalar> 
46
(
1.11452e-08
1.09725e-08
8.27322e-09
8.4687e-09
8.33944e-09
7.40996e-09
4.71716e-09
2.74989e-09
1.2421e-09
4.39274e-10
0
0
0
0
0
0
0
0
0
0
0
0
0
0
0
0
0
0
0
0
0
0
0
0
0
0
0
0
0
0
0
0
0
0
0
0
)
;
    }
    defaultFaces
    {
        type            empty;
    }
}


// ************************************************************************* //
