/*--------------------------------*- C++ -*----------------------------------*\
| =========                 |                                                 |
| \\      /  F ield         | OpenFOAM: The Open Source CFD Toolbox           |
|  \\    /   O peration     | Version:  2312                                  |
|   \\  /    A nd           | Website:  www.openfoam.com                      |
|    \\/     M anipulation  |                                                 |
\*---------------------------------------------------------------------------*/
FoamFile
{
    version     2.0;
    format      ascii;
    arch        "LSB;label=32;scalar=64";
    class       volScalarField;
    location    "2.3";
    object      alpha.air;
}
// * * * * * * * * * * * * * * * * * * * * * * * * * * * * * * * * * * * * * //

dimensions      [0 0 0 0 0 0 0];

internalField   nonuniform List<scalar> 
2268
(
6.72469e-10
4.19258e-10
2.26377e-10
1.00232e-10
3.87156e-11
1.41473e-11
6.61167e-12
3.60874e-12
1.65699e-12
1.36679e-12
1.85462e-12
3.46271e-12
6.78527e-12
1.21392e-11
2.24124e-11
5.60908e-11
1.38468e-10
3.04288e-11
3.04288e-11
4.83071e-11
4.83381e-11
8.91947e-10
1.58295e-08
1.03575e-09
1.22021e-09
1.01926e-09
4.5021e-10
2.20951e-10
9.89366e-11
5.91956e-11
2.44709e-11
9.75339e-12
1.21099e-11
2.20534e-11
3.50597e-11
5.4529e-11
7.7591e-11
1.12833e-10
3.01782e-10
2.31804e-09
1.17678e-09
3.04288e-11
3.04288e-11
8.77059e-09
6.11841e-08
9.70811e-08
4.19398e-10
1.35167e-09
1.71461e-09
4.47723e-10
6.88194e-10
1.93157e-10
1.73214e-10
7.55011e-11
6.07118e-11
1.38605e-10
2.73478e-10
3.81386e-10
3.4287e-10
2.26685e-10
2.01261e-10
2.32432e-10
4.53973e-09
9.39316e-08
8.35335e-08
1.14556e-07
1.03359e-07
1.79242e-07
2.03947e-07
9.64434e-23
3.59717e-23
4.23504e-12
1.28148e-07
1.87051e-08
1.09858e-08
4.62096e-10
6.78789e-11
1.20563e-11
3.72818e-10
7.7994e-10
9.22466e-10
7.87831e-10
3.84771e-10
2.19395e-10
2.11836e-10
1.9368e-09
2.68156e-08
7.3447e-07
7.93765e-07
3.96199e-07
5.32068e-07
5.82643e-05
0.000124906
3.15212e-07
4.21867e-07
7.87142e-07
2.12086e-07
5.78844e-07
3.55489e-07
2.90783e-18
1.41367e-20
-1.01409e-13
1.17981e-28
3.00186e-28
1.23259e-10
1.41399e-10
6.50318e-11
4.37516e-11
3.5927e-10
5.18103e-09
1.08116e-07
1.84656e-09
1.7724e-09
2.87806e-05
0.000338861
0.000493993
0.000393765
1.02381e-05
2.4703e-07
2.21963e-07
3.25185e-05
4.81838e-05
3.30197e-05
1.87894e-06
1.41381e-05
3.0039e-05
1.85411e-05
3.02108e-07
3.81332e-14
3.06409e-14
4.81573e-12
3.50509e-16
2.71488e-16
2.52014e-16
5.4257e-05
0.000599413
0.000420508
0.000339225
0.000521888
0.000818566
0.000405724
0.000783996
0.0004133
7.44656e-05
7.75154e-05
0.000133708
0.000290004
0.000290897
4.99355e-05
9.15879e-13
7.71303e-13
5.44984e-05
5.90557e-09
4.56592e-12
2.32229e-16
0.00193046
0.00331984
0.00509986
0.00226719
0.00634892
0.00304259
0.000515914
0.000607393
0.0015694
0.0031564
0.00164066
5.93377e-05
5.93377e-05
5.93377e-05
5.93377e-05
0.000103419
0.000130855
0.000119538
0.00018496
0.000286823
0.00561598
0.0145867
0.0160914
0.0163235
0.00983924
0.00516991
0.0170386
0.037048
0.0434021
0.000212188
0.00033739
0.000338447
0.00103502
0.0016707
0.00677238
0.0128633
0.0128633
0.0128444
0.00843699
0.00642495
0.00642439
0.0058668
0.0058668
0.00586679
0.0058668
0.00586681
0.00605591
0.00646712
0.00133423
0.00259137
0.00228992
0.00115261
0.00165238
0.0062974
0.0128634
0.0107746
0.00738065
0.00860207
0.00950803
0.00968594
0.00705703
0.00586679
0.00586679
0.00782323
0.0120213
0.00604233
0.00602812
0.0043715
0.00664082
0.00706743
0.00472162
0.00356299
0.00371017
0.00398067
0.0036579
0.00365803
0.00365777
0.00453266
0.00878215
0.00698595
0.00686451
0.0128638
0.0350185
0.04521
0.039291
0.0112907
0.00984536
0.00672478
0.00667552
0.00683896
0.00692334
0.00691352
0.00365798
0.00365815
0.00472852
0.00372993
0.00365623
0.00365567
0.0109415
0.0232032
0.0859919
0.0928622
0.0730769
0.0180358
0.00784427
0.0298919
0.0243923
0.013373
0.0117834
0.028852
0.0373387
0.0302552
0.0226575
0.0122314
0.00365669
0.00365624
0.00375864
0.0231548
0.0886747
0.0972837
0.0739958
0.0310909
0.014457
0.00784082
0.0412117
0.0412117
0.040003
0.0307777
0.0225566
0.0398036
0.0404336
0.0404147
0.00815365
0.00509693
0.00365623
0.0213948
0.0872217
0.101803
0.0484236
0.0482601
0.111707
0.109191
0.00816984
0.0412095
0.0211579
0.00982899
0.000513905
0.00025909
0.00369315
0.0134343
0.0160601
0.00566469
0.0171696
0.0182785
0.0953503
0.0953074
0.0633692
0.0513472
0.0982759
0.117477
0.07567
0.00972809
0.0266986
0.000172769
0.000171763
0.000183149
0.000225086
0.0182499
0.0157224
0.00842501
0.0120994
0.0207617
0.0295102
0.0469571
0.0475787
0.0491181
0.123797
0.136612
0.0768737
0.0068679
0.0117109
0.0247513
0.000921942
0.00161276
0.00311871
0.000866035
5.93377e-05
5.93377e-05
8.57901e-05
0.000458534
0.000633871
0.000637215
0.000615115
0.000756072
0.0132618
0.0252494
0.0195359
0.0167937
0.00431219
0.00449683
0.0057069
0.035613
0.0496839
0.0478025
0.178375
0.0782186
0.00894495
0.00259048
0.00205687
0.00388463
0.000665117
0.000599115
0.000647674
0.000648383
0.00064609
0.000642253
0.00580472
0.0281732
0.0276348
0.0205772
0.00431242
0.00432356
0.00478267
0.00563382
0.00399757
0.00144201
0.000764819
0.139352
0.190125
0.103865
0.0040037
0.0020621
0.0093651
0.0290157
0.044904
0.0452656
0.00687825
0.000629569
0.000629027
0.000630576
0.00358082
0.0287346
0.0519944
0.0311154
0.0270776
0.0198299
0.00254061
2.03697e-05
2.04189e-05
2.02541e-05
0.0347418
0.166038
0.179582
0.0720594
0.0108723
0.00665951
0.0297911
0.0858468
0.10764
0.107377
0.0710626
0.0094569
0.000798717
0.00380366
0.0527157
0.0666009
0.066603
0.0666066
0.0388493
3.70036e-05
3.79712e-05
0.00024087
0.000314898
0.0345655
0.110542
0.171521
0.0621589
0.0095756
0.00111791
0.0103578
0.0348193
0.0650962
0.0950082
0.112138
0.112171
0.0973175
0.022066
0.0257468
0.0652568
0.0666066
0.0666105
0.0276053
0.000694914
0.00085126
0.000870247
0.000674947
0.110463
0.343068
0.198721
0.0738434
0.00221402
0.000833113
0.000828104
0.000827485
0.00231138
0.0106288
0.0357336
0.112156
0.112182
0.0643672
0.00309593
0.00351383
0.0544533
0.0666146
0.0483359
0.00207435
0.00164931
0.000880702
0.000676211
0.205257
0.765637
0.357366
0.0601098
0.000978161
0.000980087
0.000858363
0.000837291
0.0104293
0.0142253
0.00376989
0.0271627
0.0558194
0.0217651
0.00238788
0.00238734
0.00239085
0.0506992
0.049986
0.00330175
0.00164484
0.0186257
0.207463
0.226699
0.765808
0.702381
0.109164
0.00442221
0.0331967
0.0296606
0.0226115
0.0301967
0.030226
0.00345382
0.00209902
0.00232299
0.00236402
0.00234676
0.00234446
0.00235406
0.0165753
0.0437905
0.10668
0.222291
0.548389
0.897696
0.161185
0.765312
0.767689
0.617242
0.06835
0.00368336
0.01635
0.0179451
0.0179842
0.00845068
0.00165783
0.00205983
0.00215111
0.00214822
0.00465531
0.0508652
0.116937
0.262381
0.526719
0.786872
0.966615
0.9897
0.991781
0.095721
0.647044
0.767341
0.38014
0.00131986
0.00107438
0.00114777
0.00114802
0.00135607
0.00104849
0.000792907
0.000589281
0.000750176
0.0852631
0.503364
0.792692
0.913256
0.996342
0.997352
0.999273
0.999637
1
0.999999
0.0588354
0.0989759
0.198277
0.0167823
0.000887785
0.000887744
0.000887778
0.0145793
0.220919
0.394025
0.561803
0.688227
0.816853
0.960703
0.999354
0.999429
0.999811
0.999946
0.999961
0.999992
1
1
0.99991
0.0965591
0.0657271
0.0168919
0.0166672
0.115243
0.391855
0.685093
0.876567
0.963015
0.988891
0.99972
0.999998
0.999999
0.999999
0.999795
0.999621
0.999619
0.999805
0.999995
0.999998
0.999999
0.999999
0.999832
0.123049
0.37297
0.236258
0.438295
0.842535
0.9786
0.999521
0.999936
0.999978
0.999978
0.999975
0.999976
0.999965
0.999966
0.999982
0.999974
0.99989
0.999814
0.999886
0.999986
0.999988
0.999888
0.999814
0.0518744
0.35345
0.791461
0.971241
0.999524
0.999969
0.999942
0.999925
0.999927
0.999958
0.999975
0.999957
0.999956
0.99998
0.999985
0.999981
0.999987
1
0.999999
0.999998
1
0.999986
0.999822
0.0235484
0.0389139
0.371819
0.928307
0.998727
0.999971
0.999957
0.999956
0.999993
0.999998
0.999969
0.999913
0.999912
0.999913
0.999991
1
1
1
1
1
1
1
1
0.0235484
0.0235566
0.203833
0.793191
0.999253
0.999967
0.999977
0.999997
0.999998
0.999999
0.999999
1
0.999981
0.999967
0.999961
0.999998
1
1
1
1
1
1
1
0.0237326
0.149346
0.854715
0.998441
0.999731
0.999989
0.999999
0.999998
0.999999
0.999999
1
1
1
1
1
0.999999
1
1
1
1
1
1
1
0.0237343
0.384548
0.965558
0.999366
0.999947
0.999998
0.999999
0.999998
1
1
1
1
1
1
1
1
1
1
1
1
1
1
1
0.0237359
0.556547
0.970887
0.999497
0.999999
0.999999
0.999998
0.999998
1
1
1
1
1
1
1
1
1
1
1
1
1
1
1
0.196889
0.810935
0.979019
0.999477
1
0.999999
0.999997
0.999999
1
1
1
1
1
1
1
1
1
1
1
1
1
1
1
0.942807
0.993865
0.999196
0.999844
1
0.999998
0.999997
1
1
1
1
1
1
1
1
1
1
1
1
1
1
1
1
0.989641
0.996903
1
0.999997
0.999999
0.999998
0.999999
1
1
1
1
1
1
1
1
1
1
1
1
1
1
1
1
0.999999
1
1
0.999999
0.999998
0.999998
1
1
1
1
1
1
1
1
1
1
1
1
1
1
1
1
1
0.999998
0.999999
1
0.999999
0.999998
1
1
1
1
1
1
1
1
1
1
1
1
1
1
1
1
1
1
0.999998
0.999998
1
1
1
1
1
1
1
1
1
1
1
1
1
1
1
1
1
1
1
1
1
0.999998
0.999998
0.999999
1
1
1
1
1
1
1
1
1
1
1
1
1
1
1
1
1
1
1
1
0.999997
0.999998
0.999998
1
1
1
1
1
1
1
1
1
1
1
1
1
1
1
1
1
1
1
1
0.999995
0.999999
0.999999
1
1
1
1
1
1
1
1
1
1
1
1
1
1
1
1
1
1
1
1
0.999994
1
1
1
1
1
1
1
1
1
1
1
1
1
1
1
1
1
1
1
1
1
1
0.999995
1
0.999999
0.999998
0.999995
0.999998
1
1
1
1
1
1
1
1
1
1
1
1
1
1
1
1
1
0.996646
0.999604
0.999944
0.999958
0.999966
0.999999
1
1
1
1
1
1
1
1
1
1
1
1
1
1
1
1
1
0.994567
0.985907
0.992707
0.999635
1
1
1
1
1
1
1
1
1
1
1
1
1
1
1
1
1
1
1
0.974085
0.970634
0.977877
0.999077
0.999999
1
1
1
1
1
1
1
1
1
1
1
1
1
1
1
1
1
1
0.966249
0.970376
0.990848
0.99995
1
1
1
1
1
1
1
1
1
1
1
1
1
1
1
1
1
1
1
0.972689
0.993712
0.999997
1
1
1
1
1
1
1
0.999999
1
1
1
1
1
1
1
1
1
1
1
1
0.999361
0.999999
1
1
1
1
1
1
1
1
0.999999
0.999999
1
1
1
1
1
1
1
1
1
1
1
0.999999
1
1
1
1
1
1
1
1
0.999999
0.999999
1
1
1
1
1
1
1
1
1
1
1
1
1
1
1
1
1
1
1
1
0.999999
0.999999
0.999999
1
1
1
1
1
1
1
1
1
1
1
1
1
1
1
1
1
1
1
1
0.999999
0.999999
1
1
1
1
1
1
1
1
1
1
1
1
1
1
1
1
1
1
1
0.999998
0.999998
1
1
1
1
1
1
1
1
1
1
1
1
1
1
1
0.999999
1
1
1
1
0.999999
0.999998
0.999998
1
1
1
1
1
1
1
1
1
1
1
1
1
1
1
0.999997
0.999998
0.999999
0.999999
0.999999
0.999997
0.999998
1
1
1
1
1
1
1
1
1
1
1
1
1
1
1
1
0.0290117
1.72314e-05
0.00074854
0.000746814
0.000527783
1.45424e-05
0.0130266
0.0367839
2.03291e-05
0.000712694
0.0395491
0.0859445
0.000126894
0.000255996
1.4609e-05
0.000878221
-1.6171e-07
-7.31943e-07
-7.17634e-20
-8.07073e-15
0.0131471
0.0687598
0.186978
0.24912
0.503009
0.692049
0.810725
0.877942
0.970139
0.969967
0.977039
0.98036
0.994582
0.996949
0.998261
0.999233
1
0.999791
0.999951
0.999952
0.999743
0.999743
0.999743
0.999743
0.999743
0.999743
0.999744
0.999744
0.999828
0.999903
0.999904
0.999928
0.999789
0.999789
0.99979
0.999828
1
1
1
1
1
1
1
1
1
1
1
1
1
1
1
1
1
1
1
1
1
1
1
1
1
1
1
1
1
1
1
1
1
1
1
1
1
1
1
1
1
1
1
1
1
1
1
1
1
1
1
1
1
1
1
1
1
1
1
1
1
1
1
1
1
1
1
1
1
1
1
1
1
1
1
1
1
1
1
1
1
1
1
1
1
1
1
1
1
1
1
1
1
1
1
1
1
1
1
1
1
1
1
1
1
1
1
1
1
1
1
1
0.00107306
0.00303169
0.000592073
0.000182837
0.00159282
0.0785162
0.103494
0.00465585
0.0046829
0.00531191
0.00401325
0.00401418
0.0068896
0.0737349
0.168571
0.135495
0.00666234
0.00166019
0.00859836
0.0576941
0.0716354
0.0442758
0.00831455
0.0136487
0.110786
0.119326
0.070077
0.054681
0.0233268
0.00407563
0.00554124
0.0439237
0.0943492
0.168596
0.0721259
0.00151089
0.00150574
0.00151369
0.0859459
0.0859483
0.0859474
0.0662552
0.0216301
0.07498
0.141312
0.101526
0.122579
0.0864678
0.0181516
0.0220194
0.108439
0.115452
0.1152
0.00314282
0.00186449
0.0118756
0.0015069
0.0232374
0.0638784
0.0838512
0.0806368
0.067599
0.107635
0.14625
0.149566
0.122663
0.123516
0.21046
0.218595
0.176961
0.103776
0.0187879
0.00302968
0.03502
0.151653
0.164754
-1.31224e-05
0.00544923
0.0243728
0.0337499
0.0249604
0.0536588
0.26899
0.33093
0.338105
0.488536
0.490615
0.441417
0.378071
0.262708
0.108513
0.0372537
0.0756034
0.179367
0.406156
0.226391
0.0101523
0.00771169
0.00773822
0.0258583
0.163202
0.509664
0.74684
0.893824
0.981366
0.972912
0.906921
0.878263
0.838902
0.759073
0.62874
0.525741
0.375972
0.509915
0.848926
0.353673
0.170309
0.449908
0.763724
0.927614
0.996938
0.99935
0.999861
0.999861
0.999842
0.999857
0.999933
0.999945
0.999949
0.998694
0.967566
0.930754
0.915538
0.986233
0.977985
0.936528
0.99861
0.99887
0.999598
0.999989
0.999965
0.999839
0.999818
0.999855
0.999931
0.999972
0.999935
0.99993
0.999963
0.999996
0.999999
0.999999
0.999328
0.998669
0.999136
0.999493
0.999949
0.999992
0.999989
0.999897
0.9998
0.999807
0.999962
0.999993
0.999993
0.999969
0.999943
0.999936
0.999983
0.999999
1
0.999952
0.999942
0.999973
0.99991
0.999957
0.999937
0.999738
0.999568
0.999568
0.999581
0.999684
0.999993
0.999992
0.999773
0.999903
0.999933
0.999985
0.999999
0.999999
0.999889
0.999986
0.999987
0.999987
0.999864
0.999568
0.999568
0.999568
0.999568
0.999593
0.999639
0.999877
0.999781
0.999638
0.999703
0.999929
0.999985
0.999999
0.999999
0.999859
0.999985
0.999982
0.99998
0.999895
0.999833
0.999787
0.999754
0.999808
0.999987
0.999989
0.999639
0.999639
0.999636
0.999636
0.999895
0.99999
1
1
0.999938
0.999937
0.999937
0.999937
0.999978
1
1
1
1
1
0.999999
0.99998
0.999912
0.99991
0.999773
0.999934
0.999998
0.999999
0.999999
0.999966
0.999972
0.999957
0.999968
0.999999
1
1
1
1
1
1
1
1
0.999995
0.999975
0.999962
1
0.999999
0.999994
1
1
1
1
1
1
1
1
1
1
1
1
1
0.999997
0.999982
0.999991
1
0.999998
0.999994
1
1
1
1
1
1
1
1
1
1
1
1
1
1
1
0.999997
1
0.999998
0.999994
1
1
1
1
1
1
1
1
1
0.999999
0.999999
1
1
1
1
1
1
0.999998
0.999994
1
1
1
1
1
1
1
1
1
0.999999
1
1
1
1
1
1
1
0.999999
0.999994
1
1
1
1
1
1
1
1
1
1
1
1
1
1
1
1
1
1
0.999999
1
1
1
1
1
1
1
1
1
1
1
1
1
1
1
1
1
1
1
1
1
1
1
1
1
1
1
1
1
1
1
1
1
1
1
0.999999
0.999993
1
1
1
1
1
1
1
1
1
1
1
1
1
1
1
1
1
0.999998
0.999992
0.999994
1
1
1
1
1
1
1
1
1
1
1
1
1
1
1
1
0.999999
0.999991
0.999992
1
1
1
1
1
1
1
1
1
1
1
1
1
1
1
1
1
0.999992
0.999998
1
1
1
1
1
1
1
1
1
1
1
1
1
1
1
1
1
1
1
1
1
1
1
1
1
1
1
1
1
1
1
1
1
1
1
1
1
1
1
1
1
1
1
1
1
1
1
1
1
1
1
1
1
1
1
1
1
1
1
1
1
1
1
1
1
1
1
1
1
1
1
1
1
1
1
1
1
1
1
1
1
1
1
1
1
1
1
1
1
1
1
1
1
1
1
1
1
1
1
1
1
1
1
1
1
1
1
1
1
1
1
1
1
1
1
1
1
1
1
1
1
1
1
1
1
1
1
1
1
1
1
1
1
1
1
1
1
1
1
1
1
1
1
1
1
1
1
1
1
1
1
1
1
1
1
1
1
1
1
1
1
1
1
1
1
1
1
1
1
1
1
1
1
1
1
1
1
1
1
1
1
1
1
1
1
1
1
1
1
1
1
1
1
1
1
1
1
1
1
1
1
1
1
1
1
1
1
1
1
1
1
1
1
1
1
1
1
1
1
1
1
1
1
1
1
1
1
1
1
1
1
1
1
1
1
1
1
1
1
1
1
1
1
1
1
1
1
1
1
1
1
1
1
1
1
1
1
1
1
1
1
1
1
1
1
1
1
1
1
1
1
1
1
1
1
1
1
1
1
1
1
1
1
1
1
1
1
1
1
1
1
1
1
1
1
1
1
1
1
1
1
1
1
1
1
1
1
1
1
1
1
1
1
1
1
1
1
1
1
1
1
1
1
1
1
1
1
1
1
1
1
1
1
1
1
1
1
1
1
1
1
1
)
;

boundaryField
{
    leftWall
    {
        type            alphaContactAngle;
        thetaProperties 
6
(
(galistan air) 90 0 0 0
(oil galistan) 90 0 0 0
(water oil) 90 0 0 0
(water air) 90 0 0 0
(oil air) 90 0 0 0
(water galistan) 90 0 0 0
);
        value           nonuniform List<scalar> 
50
(
6.72469e-10
1.03575e-09
4.19398e-10
9.64434e-23
0.000124906
0.000493993
0.000521888
0.000515914
0.0247513
0.178375
0.139352
0.0347418
0.0345655
0.110463
0.205257
0.226699
0.161185
0.095721
0.0588354
0.0965591
0.123049
0.0518744
0.0235484
0.0235484
0.0237326
0.0237343
0.0237359
0.196889
0.942807
0.989641
0.999999
0.999998
0.999998
0.999998
0.999997
0.999995
0.999994
0.999995
0.996646
0.994567
0.974085
0.966249
0.972689
0.999361
0.999999
1
1
1
0.999999
0.999997
)
;
    }
    rightWall
    {
        type            alphaContactAngle;
        thetaProperties 
6
(
(galistan air) 90 0 0 0
(oil galistan) 90 0 0 0
(water oil) 90 0 0 0
(water air) 90 0 0 0
(oil air) 90 0 0 0
(water galistan) 90 0 0 0
);
        value           nonuniform List<scalar> 
50
(
0.00646712
0.00602812
0.0112907
0.00784427
0.00784082
0.00816984
0.00972809
0.0117109
0.00859836
0.00151369
0.0015069
0.164754
0.406156
0.509915
0.915538
0.999999
1
0.999999
0.999999
1
0.999999
0.999994
0.999994
0.999994
0.999994
0.999994
0.999999
1
1
0.999994
0.999992
0.999998
1
1
1
1
1
1
1
1
1
1
1
1
1
1
1
1
1
1
)
;
    }
    lowerWall
    {
        type            alphaContactAngle;
        thetaProperties 
6
(
(galistan air) 90 0 0 0
(oil galistan) 90 0 0 0
(water oil) 90 0 0 0
(water air) 90 0 0 0
(oil air) 90 0 0 0
(water galistan) 90 0 0 0
);
        value           nonuniform List<scalar> 
62
(
6.72469e-10
4.19258e-10
2.26377e-10
1.00232e-10
3.87156e-11
1.41473e-11
6.61167e-12
3.60874e-12
1.65699e-12
1.36679e-12
1.85462e-12
3.46271e-12
6.78527e-12
1.21392e-11
2.24124e-11
5.60908e-11
1.38468e-10
3.04288e-11
3.04288e-11
4.83071e-11
4.83381e-11
8.91947e-10
1.58295e-08
1.58295e-08
9.70811e-08
2.03947e-07
5.82643e-05
0.000338861
0.000339225
0.00304259
0.0434021
0.0290117
1.72314e-05
0.00074854
0.000746814
0.000212188
0.00133423
0.0043715
0.00984536
0.0298919
0.0412117
0.0412095
0.0266986
0.000212188
0.00033739
0.000338447
0.00103502
0.0016707
0.00677238
0.0128633
0.0128633
0.0128444
0.00843699
0.00642495
0.00642439
0.0058668
0.0058668
0.00586679
0.0058668
0.00586681
0.00605591
0.00646712
)
;
    }
    atmosphere
    {
        type            inletOutlet;
        inletValue      uniform 1;
        value           nonuniform List<scalar> 
46
(
0.999997
0.999998
0.999999
0.999999
0.999998
0.999997
0.999998
1
1
1
1
1
1
1
1
1
1
1
1
1
1
1
1
1
1
1
1
1
1
1
1
1
1
1
1
1
1
1
1
1
1
1
1
1
1
1
)
;
    }
    defaultFaces
    {
        type            empty;
    }
}


// ************************************************************************* //
