/*--------------------------------*- C++ -*----------------------------------*\
| =========                 |                                                 |
| \\      /  F ield         | OpenFOAM: The Open Source CFD Toolbox           |
|  \\    /   O peration     | Version:  2312                                  |
|   \\  /    A nd           | Website:  www.openfoam.com                      |
|    \\/     M anipulation  |                                                 |
\*---------------------------------------------------------------------------*/
FoamFile
{
    version     2.0;
    format      ascii;
    arch        "LSB;label=32;scalar=64";
    class       volScalarField;
    location    "2.3";
    object      p_rgh;
}
// * * * * * * * * * * * * * * * * * * * * * * * * * * * * * * * * * * * * * //

dimensions      [1 -1 -2 0 0 0 0];

internalField   nonuniform List<scalar> 
2268
(
5932.31
5959.74
6005.56
6058.45
6105.32
6136.84
6147.93
6137.03
6105.79
6057.91
5996.47
5924.76
5846.49
5765.38
5684.07
5603.36
5522.75
5441.95
5362.75
5289.77
5230.83
5188.49
5167.34
5916.71
5947.71
5999.82
6056.9
6106.83
6140.4
6152.48
6141.5
6109.48
6060.84
5998.55
5925.87
5846.57
5764.62
5682.93
5602.17
5521.55
5440.47
5360.55
5286.61
5226.55
5183.81
5162.26
5893.95
5930.27
5990.54
6054.69
6110.4
6147.89
6161.93
6150.74
6117.05
6066.9
6002.88
5928.13
5846.55
5762.73
5680.1
5599.17
5518.57
5437.08
5355.81
5279.91
5217.95
5174.13
5152.37
5862.23
5905.51
5977.1
6051.77
6116.4
6159.86
6176.83
6165.19
6128.47
6075.92
6009.15
5931.22
5846.09
5759.4
5675.53
5594.62
5514.37
5432.48
5349.35
5269.84
5205.12
5162.79
5137.08
5818.25
5867.87
5955.86
6046.18
6124.8
6176.42
6197.55
6184.72
6142.07
6087.67
6017.49
5935.22
5845.01
5754.27
5668.83
5588.14
5508.41
5425.87
5340.35
5255.94
5179.38
5087.83
5007.33
5320.39
5508.3
5802.98
6019.3
6140.55
6200.07
6226
6211.71
6169.22
6102.84
6028.21
5913.94
5673.48
5377.72
5072.12
4761.3
4404.28
4003.66
3623.13
3231.51
2891.37
2748.35
2746.51
2087.36
2326.78
2914.52
3651.89
4392.4
4800.82
5022.16
4952.95
4610.71
4125.8
3603.91
2999.29
2499.2
2114.69
1868.32
1621.95
1519.49
1487.19
1361.83
1262.09
1204.05
1191.36
1315.09
1281.55
1292.09
1299.78
1300.41
1349.53
1590.94
1576.75
1438.85
1391.64
1328.31
1291.3
1283
1276.59
1267.99
1253.68
1312.34
1256.23
1212.2
1208.33
1204.23
1218.7
1172.02
1120.03
2584.74
2605.49
2678.79
2773.37
2888.04
3059.93
3158.48
3189.59
3151.27
3029.96
2873.35
2737.62
2625.44
2590.26
2624.99
2737.37
2891.01
3102.48
3270.14
2538.91
2527.89
2612.2
2729.67
2850.25
3045.1
3169.71
3210.59
3137.45
2926.21
2726.2
2596.58
2463.46
2404
2459.17
2606.76
2801.68
3104.46
3260.23
1598.13
1621
1759.91
2013.58
2298.82
2642.25
2880.17
2843.27
2718.85
2594.56
2378.26
2042.19
1729.23
1667.82
1724.54
1980.33
2167.14
2573.19
2848.97
1272.17
1291.08
1299.89
1294.78
1424.7
1665
2019.9
2433.92
2412.45
2132.9
1670.74
1410.69
1448.22
1330.34
1252.76
1411.68
1660.38
2012.31
2601.34
1047.33
1094.54
1184.61
1178.03
1140.36
1346.84
1494.56
1675.78
1527.1
1434.58
1416.63
1407.57
1408.3
1274.73
1082.21
1054.42
1124.45
1096.68
1451.39
1016.76
1009.49
997.137
1030.44
1001.74
946.096
1055.42
1255.95
1343.32
1285.99
1332.89
1361.69
1283.2
1230.34
1101.17
1090.08
1063.99
1047.06
973.009
1040.57
1079.45
1065.16
1069.68
1048
1014.99
966.933
1126.37
1237.16
1129.04
1025.73
943.829
982.503
1053.4
1126.36
1101.17
1060.65
974.725
996.953
1093.73
1104.14
1088.69
1068.31
1043.55
1000.3
983.936
1043.82
1222.96
1030.84
1010.04
1002.45
1019.22
1046.8
1095.71
1065.74
974.529
1002.11
1017.68
1206.32
1272.27
1299.4
1302.77
1305.13
1302.55
1296.72
1295.36
1292.77
1290.64
1287.88
1283.15
1276.22
1273.08
1226.82
1216.09
1211.86
1184.48
1223.9
1206.47
1172.17
1100.45
1049.21
946.352
1085.79
1282.36
1313.71
1311.74
1314.75
1315.27
1309.47
1304.02
1299.96
1295.38
1289.77
1280.8
1237.66
1167.28
1162.16
1242.87
1243.02
1222.22
1202
1181.8
1168.19
1153.3
911.177
872.248
954.801
1185.16
1287.1
1332.7
1308.59
1289.38
1281.95
1305.21
1304.11
1297.94
1289.92
1250.52
1215.78
1206.08
1231.87
1232.83
1155.16
1103.71
1044.09
1043.31
1022.35
925.536
844.724
836.815
896.905
987.895
1098.96
1180.95
1186.95
1213.69
1229.66
1253.01
1299.02
1294.71
1274.59
1219.26
1195.44
1106.39
913.985
837.154
838.259
798.46
754.199
743.182
895.241
831.227
805.964
870.547
899.955
903.74
903.693
899.251
912.089
944.318
1000.96
1033.35
982.894
945.771
938.954
883.308
782.899
760.105
783.074
786.898
773.51
760.234
750.981
830.462
664.898
770.11
857.049
903.769
902.807
895.303
885.172
869.172
849.333
820.356
765.334
751.077
769.197
799.614
795.346
761.741
748.321
748.68
765.281
755.607
749.146
754.746
769.219
393.237
666.082
869.187
912.397
909.671
903.002
894.121
875.679
860.475
854.724
827.882
797.029
807.207
809.566
800.76
793.046
753.337
746.834
763.748
756.17
773.81
836.795
777.235
386.544
430.896
851.085
925.96
901.08
896.026
892.776
877.934
865.843
871.706
859.531
845.363
831.916
817.981
804.986
794.424
774.06
749.85
731.798
694.022
581.456
426.765
876.05
384.149
378.962
488.819
901.086
940.226
921.078
909.672
898.092
893.061
885.213
870.37
856.439
843.156
823.779
773.935
720.974
613.771
418.876
290.34
180.898
132.733
95.4686
1018.28
479.521
375.641
683.336
975.981
958.442
945.636
934.897
922.093
909.373
895.952
882.297
870.956
793.657
434.807
185.572
91.3546
40.9021
32.7138
9.69542
5.45224
0.313067
0.380478
1123.98
1000.56
862.057
1004.86
1006.1
994.217
993.895
1128.4
1002.96
840.028
630.15
365.808
189.24
44.425
2.87364
1.68459
0.667054
0.433216
0.318149
0.247806
0.207946
0.233501
0.497957
1171.33
1145.91
1042.11
1007.27
889.896
672.663
429.26
241.255
101.656
37.2305
4.40065
0.343546
0.291571
0.243663
0.431888
0.724284
0.804725
0.648631
0.304327
0.267051
0.253916
0.255399
0.620898
1144.71
931.281
926.658
594.23
169.462
38.096
12.7996
1.5931
0.41712
0.316256
0.284628
0.296557
0.300308
0.294799
0.264478
0.266089
0.356586
0.487615
0.600981
0.532761
0.52958
0.412945
0.479772
1140.16
967.071
466.165
187.684
14.4286
0.870949
0.708424
0.580386
0.466137
0.369138
0.332747
0.327685
0.3035
0.268099
0.265601
0.26823
0.251735
0.221605
0.224979
0.229926
0.231473
0.254911
0.429644
1165.11
1156.39
901.265
234.818
26.7284
1.11403
0.63751
0.492712
0.373947
0.318983
0.32241
0.359409
0.338202
0.32808
0.233725
0.219371
0.216698
0.215349
0.215688
0.217881
0.220805
0.222122
0.221669
1217.49
1210.17
982.785
260.187
10.1802
1.45601
0.493187
0.358438
0.310355
0.283138
0.261094
0.243183
0.249784
0.254996
0.256924
0.209343
0.205811
0.205532
0.205914
0.207448
0.20946
0.210875
0.211369
1267.15
1093.01
187.175
2.34304
0.714837
0.421075
0.237344
0.258857
0.246139
0.229906
0.220014
0.210236
0.202682
0.198137
0.194896
0.194697
0.194402
0.194686
0.195514
0.196826
0.198638
0.200309
0.201716
1318.18
877.826
85.9292
2.10452
0.118818
0.0430569
0.136978
0.178088
0.186201
0.185722
0.184746
0.182596
0.18053
0.179302
0.179156
0.179752
0.181006
0.182326
0.183976
0.185953
0.18807
0.190153
0.192143
1386.31
700.636
106.995
1.85863
-0.03793
0.0254829
0.0823764
0.117762
0.13707
0.147631
0.153559
0.156966
0.159246
0.161175
0.163167
0.165302
0.167552
0.169965
0.17247
0.175016
0.177548
0.180016
0.182422
1272.3
364.728
85.8326
2.58499
-0.096153
-0.0243589
0.0352985
0.0703837
0.0963987
0.113253
0.124646
0.132432
0.13841
0.14317
0.147248
0.150942
0.154406
0.157722
0.160918
0.163998
0.166952
0.169785
0.172523
179.776
23.2247
4.12407
0.488947
-0.215996
-0.0841775
-0.00614194
0.0334825
0.0632108
0.0834913
0.0986669
0.110013
0.118795
0.125844
0.131739
0.13685
0.141406
0.145548
0.149378
0.152956
0.156314
0.159486
0.162505
38.0716
10.7316
-0.682823
-0.457391
-0.256505
-0.118876
-0.0387206
0.00516917
0.0357121
0.0585605
0.0762081
0.0898953
0.10075
0.109568
0.11692
0.123204
0.12869
0.133568
0.13797
0.141997
0.14572
0.149198
0.152465
-0.474013
-0.559598
-0.512379
-0.381221
-0.210947
-0.11987
-0.0573851
-0.015663
0.0147273
0.0385133
0.0572947
0.0723358
0.0845406
0.0945975
0.103027
0.110214
0.116444
0.121926
0.12682
0.131243
0.135284
0.139024
0.142496
-0.293734
-0.35366
-0.33863
-0.263229
-0.166943
-0.111522
-0.0653397
-0.0291099
-0.000365367
0.0228277
0.0417751
0.0573587
0.0702719
0.0810747
0.0902118
0.0980322
0.104809
0.110755
0.116038
0.120783
0.125089
0.129039
0.132686
-0.137765
-0.178071
-0.198019
-0.185896
-0.140677
-0.102032
-0.0673778
-0.0366216
-0.0107666
0.0110027
0.0293502
0.044822
0.0579096
0.069033
0.0785468
0.0867483
0.0938823
0.100149
0.105711
0.110694
0.115199
0.119312
0.12309
-0.0431416
-0.0762605
-0.115024
-0.136171
-0.12018
-0.0931854
-0.065676
-0.0400754
-0.0174051
0.00242053
0.0196146
0.0344812
0.0473218
0.0584187
0.0680307
0.0763926
0.0837108
0.0901621
0.0958949
0.10103
0.105665
0.109883
0.113743
0.0236201
-0.0129849
-0.0575927
-0.101838
-0.100848
-0.0833732
-0.0614434
-0.0404383
-0.0210328
-0.00350842
0.0121419
0.0260359
0.03831
0.0491126
0.0586027
0.0669448
0.0742994
0.0808142
0.0866191
0.091824
0.09652
0.100787
0.104679
0.086388
0.0409919
-0.00560158
-0.0634868
-0.082552
-0.0718851
-0.0551173
-0.0382466
-0.0222394
-0.00729675
0.00650238
0.0191495
0.0306287
0.0409487
0.0501587
0.0583463
0.0656213
0.0720991
0.0778895
0.0830898
0.0877824
0.0920408
0.0959188
0.148231
0.108035
0.0583207
-0.0139385
-0.0589569
-0.0562503
-0.0457875
-0.0339461
-0.021459
-0.00945782
0.00222033
0.0134353
0.0239899
0.0337261
0.0425667
0.0505151
0.0576289
0.0639926
0.0696972
0.0748273
0.0794579
0.0836584
0.0874745
0.2123
0.190069
0.132287
0.0410745
-0.00607806
-0.0279793
-0.032544
-0.026021
-0.0191665
-0.0106739
-0.00130119
0.00844539
0.0180812
0.0272344
0.0356886
0.0433626
0.0502672
0.0564622
0.062024
0.0670291
0.071546
0.0756388
0.0793539
7.3798
1.09716
0.3053
0.233471
0.154935
-0.017389
-0.0223097
-0.0213168
-0.017765
-0.0120846
-0.00476908
0.00374749
0.012635
0.0213022
0.0294117
0.0368142
0.0434865
0.0494747
0.0548486
0.0596806
0.0640372
0.0679816
0.0715534
12.1371
67.251
37.3224
1.64986
-0.0368275
-0.0284364
-0.0250519
-0.0230919
-0.0199012
-0.0151894
-0.00871836
-0.00089525
0.00752851
0.0158503
0.023679
0.0308253
0.0372514
0.0430026
0.0481491
0.0527657
0.0569179
0.0606712
0.0640648
132.387
159.228
115.582
4.07171
-0.0722818
-0.0480556
-0.0364804
-0.0301202
-0.0250728
-0.0198265
-0.0130055
-0.00537147
0.00282279
0.0109
0.0184911
0.025385
0.0315448
0.0370226
0.0419003
0.0462604
0.0501678
0.0536961
0.0568724
185.513
164.204
47.8521
0.0866995
-0.0973244
-0.0669663
-0.0501647
-0.039398
-0.0316854
-0.0247165
-0.0171677
-0.00925465
-0.00130165
0.00656354
0.0139026
0.0205028
0.0263465
0.0315005
0.0360633
0.0401257
0.0437603
0.0470307
0.0499594
154.601
34.5372
-0.267832
-0.17396
-0.122894
-0.0843636
-0.0626922
-0.0485728
-0.0379584
-0.029117
-0.019362
-0.0117467
-0.00463596
0.00296695
0.00997304
0.0161898
0.021634
0.0264015
0.0306022
0.0343295
0.0376565
0.0406433
0.0433035
3.0567
-0.318508
-0.265224
-0.189118
-0.138907
-0.0934787
-0.0724713
-0.0548182
-0.0421417
-0.0311921
-0.0212685
-0.0134483
-0.00693849
0.000245044
0.0067572
0.0124545
0.0173981
0.0217062
0.0254922
0.0288458
0.0318324
0.0345037
0.0368815
-0.315835
-0.269738
-0.227041
-0.174201
-0.128854
-0.0939163
-0.0733621
-0.0557078
-0.0428957
-0.0307367
-0.0215972
-0.0146257
-0.00814828
-0.00156144
0.00426306
0.00928964
0.0136237
0.0173952
0.0207117
0.0236506
0.0262665
0.0286015
0.0306718
-0.234599
-0.210491
-0.181727
-0.14145
-0.11172
-0.0858632
-0.0673102
-0.0519453
-0.0388616
-0.0282741
-0.0200854
-0.0144689
-0.00823171
-0.00249149
0.00245015
0.00666315
0.0102862
0.0134477
0.0162403
0.0187246
0.0209395
0.0229149
0.0246649
-0.168363
-0.156136
-0.135684
-0.110446
-0.0916473
-0.0720805
-0.0571931
-0.0435056
-0.0318206
-0.0237933
-0.0179819
-0.012688
-0.00730041
-0.00267451
0.00121452
0.00450218
0.00733608
0.0098291
0.0120518
0.0140444
0.0158294
0.0174233
0.0188282
-0.112526
-0.106973
-0.0957519
-0.0802509
-0.069706
-0.0557893
-0.0349379
-0.0250014
-0.0249002
-0.0193989
-0.0142786
-0.00968661
-0.00568816
-0.00236833
0.000371275
0.00267876
0.00468714
0.00648186
0.00810719
0.00958226
0.0109129
0.0121021
0.0131449
-0.0627568
-0.0645042
-0.0599697
-0.0506776
-0.0452318
-0.030756
-0.0173631
-0.0143625
-0.0166373
-0.0123726
-0.00884096
-0.00598384
-0.00363512
-0.00173416
-0.00019437
0.00110539
0.00226914
0.00334991
0.00436294
0.00530423
0.00616302
0.00693118
0.00759275
-0.0176557
-0.0189963
-0.0201347
-0.0180448
-0.0135511
-0.00600156
-0.00575032
-0.00868607
-0.00637397
-0.00401284
-0.00255266
-0.00167838
-0.00114456
-0.000825482
-0.00060532
-0.000373326
-7.39508e-05
0.000291927
0.00069697
0.00110827
0.00149562
0.00183551
0.00210174
1050.25
1133.72
1134.65
1128.82
1140.32
1143.61
1136.97
1125.17
943.306
949.466
924
899.746
746.592
756.016
761.425
780.406
754.389
786.962
907.551
943.664
842.312
960.685
899.686
854.811
732.652
605.253
522.514
470.491
395.37
406.002
404.324
392.351
102.321
64.796
37.0344
16.2822
0.366067
0.712488
0.503601
0.767101
0.848587
0.83366
0.780919
0.764474
0.820275
0.799025
0.778356
0.771484
0.514305
0.452114
0.448451
0.408133
0.466497
0.466955
0.481588
0.511209
0.220152
0.220078
0.220482
0.221341
0.211588
0.212001
0.212674
0.213603
0.202739
0.203493
0.204383
0.205388
0.193587
0.194559
0.195606
0.196707
0.184148
0.185271
0.186438
0.187632
0.174464
0.175709
0.176977
0.17825
0.164629
0.165979
0.167329
0.168674
0.154744
0.156184
0.157608
0.159012
0.144912
0.146427
0.147908
0.149358
0.135202
0.13678
0.138304
0.139792
0.12568
0.12729
0.128841
0.130344
0.116371
0.117997
0.119562
0.121069
0.107318
0.108946
0.110505
0.112002
0.0985363
0.100147
0.10169
0.103166
0.0900455
0.091626
0.0931331
0.094575
0.0818489
0.0833801
0.0848426
0.0862371
0.0739511
0.0754212
0.0768193
0.0781526
0.0663375
0.0677293
0.0690549
0.0703149
0.0590005
0.0603034
0.0615389
0.0627139
0.0519206
0.0531198
0.0542584
0.0553376
0.045085
0.0461721
0.0471977
0.0481706
0.0384691
0.0394323
0.0403388
0.0411965
0.032037
0.0328966
0.0336657
0.0343983
0.0258176
0.0265202
0.027142
0.0277555
0.019746
0.0202977
0.0208055
0.0212907
0.013815
0.014212
0.0145781
0.0149167
0.00800576
0.00824525
0.0084591
0.00865285
0.0022389
0.00230607
0.00235579
0.00239062
1120.06
1106.68
1088.15
1065.96
1037.33
941.478
850.401
921.714
1106.51
1117.75
1069.47
1086.45
1073.91
1062.9
1054.57
926.991
1005
1049.46
1071.86
1120.71
1107.38
1089
1060.41
1033.43
855.485
731.347
826.351
892.383
1064.01
1151.36
1168.78
1060.95
1002.62
846.944
886.519
970.514
1096.33
1108.22
894.781
897.29
958.947
984.224
1034.96
965.067
722.164
694.731
718.823
917.354
946.855
938.723
892.971
779.99
694.213
747.462
871.411
961.441
1147.74
779.787
755.476
685.01
679.448
789.061
889.048
892.003
841.33
856.922
818.579
657.331
598.755
733.656
807.243
726.231
717.473
765.976
769.185
834.6
877.254
751.424
682.108
636.691
625.386
635.437
729.384
723.549
669.92
464.711
406.76
391.779
410.54
542.924
673.386
689.586
666.627
695.467
641.356
858.148
743.831
660.701
647.452
623.214
575.954
473.647
343.198
211.34
77.2471
52.1702
75.0983
94.2505
123.589
230.685
314.516
355.053
431.345
595.002
477.705
544.554
563.74
389.366
245.203
134.251
55.9055
12.385
2.42118
1.03083
0.900601
0.833557
0.715288
0.693048
0.687431
3.9084
22.8955
80.6327
252.164
275.491
146.076
51.3119
22.939
17.5119
6.85908
0.535634
0.631346
0.801277
0.921946
0.877701
0.704667
0.602951
0.622915
0.579512
0.450038
0.300637
0.260215
0.299346
14.9858
28.4268
13.8513
5.07659
0.568012
0.456229
0.453814
0.715689
0.962443
1.00301
0.75267
0.597182
0.534869
0.533266
0.511015
0.438644
0.328067
0.251981
0.256361
0.722847
0.372165
0.280956
0.454347
0.444789
0.47386
0.703056
1.06199
1.26929
1.28651
1.19886
0.531314
0.494463
0.894489
0.535468
0.410465
0.328706
0.287004
0.279346
0.490404
0.293536
0.316864
0.36283
0.586306
0.903367
0.849435
0.812001
0.818433
1.0497
1.1956
0.760098
0.908187
1.24571
0.945355
0.382782
0.305757
0.284623
0.280707
0.543174
0.302746
0.355997
0.42525
0.548978
0.615538
0.606317
0.606995
0.554989
0.339244
0.385537
1.26148
1.25555
1.23517
1.172
0.456499
0.275709
0.26267
0.268908
0.407339
0.418308
0.421446
0.410099
0.327375
0.273783
0.281907
0.290968
0.293358
0.297729
0.298321
0.343572
0.538401
0.597532
1.02102
0.382952
0.25114
0.249313
0.25688
0.376812
0.370913
0.369409
0.295852
0.256964
0.261903
0.26824
0.273413
0.277337
0.279501
0.277662
0.269195
0.253805
0.246271
0.380164
0.323101
0.236715
0.242039
0.251708
0.223676
0.227083
0.230745
0.238628
0.244787
0.25041
0.255622
0.259949
0.263106
0.264685
0.263502
0.258053
0.245947
0.237241
0.255759
0.271369
0.232057
0.238209
0.246329
0.215636
0.21904
0.222991
0.228818
0.234172
0.23915
0.243651
0.24739
0.250251
0.252041
0.251802
0.248033
0.239966
0.230976
0.225957
0.234494
0.230893
0.235094
0.241625
0.207306
0.210661
0.21453
0.21919
0.223839
0.228222
0.23218
0.235512
0.238462
0.240218
0.24052
0.237813
0.23373
0.229027
0.226075
0.226968
0.228447
0.231015
0.236521
0.19868
0.20196
0.205611
0.209625
0.213689
0.217572
0.221107
0.224139
0.226963
0.228802
0.229119
0.227986
0.226202
0.224171
0.223043
0.223081
0.223373
0.224355
0.230278
0.1897
0.19293
0.196381
0.199998
0.203626
0.207109
0.210309
0.2131
0.215356
0.21736
0.217863
0.21796
0.217462
0.216813
0.216691
0.216243
0.216023
0.215684
0.216233
0.180416
0.183623
0.186927
0.190281
0.193598
0.196774
0.199705
0.202278
0.204383
0.205997
0.207108
0.207736
0.207913
0.207823
0.20751
0.207654
0.207634
0.207337
0.206836
0.170928
0.174129
0.17733
0.180503
0.183593
0.186535
0.189247
0.191633
0.193638
0.195262
0.196513
0.197412
0.197978
0.198265
0.198308
0.198368
0.200327
0.209143
0.19795
0.161338
0.164539
0.167671
0.170714
0.173638
0.176398
0.178928
0.181165
0.183093
0.184709
0.186032
0.187079
0.18786
0.188373
0.188626
0.188718
0.191027
0.201732
0.197992
0.15174
0.154937
0.158021
0.160967
0.163763
0.166375
0.168758
0.170885
0.172741
0.174334
0.175681
0.176798
0.177683
0.178317
0.178685
0.178797
0.18028
0.192475
0.192345
0.142208
0.145387
0.148435
0.151302
0.153991
0.156484
0.158755
0.160789
0.162579
0.164136
0.165475
0.166608
0.16753
0.168218
0.16865
0.168816
0.169295
0.181527
0.172772
0.132775
0.135958
0.138953
0.141748
0.144348
0.146743
0.14892
0.150872
0.152599
0.154111
0.155422
0.156539
0.157459
0.158161
0.158633
0.158865
0.159031
0.158921
0.158894
0.1235
0.126662
0.129607
0.132333
0.134851
0.137158
0.139251
0.141128
0.142793
0.144256
0.145526
0.14661
0.147505
0.148202
0.148705
0.148997
0.149203
0.149242
0.149314
0.114414
0.117536
0.12042
0.123073
0.125509
0.127733
0.129745
0.13155
0.133153
0.134562
0.135787
0.13683
0.137692
0.138374
0.138932
0.139262
0.139514
0.139686
0.139768
0.105539
0.108598
0.111409
0.11398
0.11633
0.118467
0.120398
0.122129
0.123669
0.125024
0.126201
0.127202
0.128029
0.128698
0.129383
0.129842
0.12996
0.13018
0.130405
0.0968894
0.0998629
0.102582
0.105058
0.107313
0.109359
0.111204
0.11286
0.114334
0.115634
0.116763
0.117723
0.118518
0.119166
0.119949
0.120687
0.120695
0.120791
0.121306
0.0884721
0.0913353
0.0939438
0.0963099
0.0984587
0.100404
0.102159
0.103735
0.105141
0.106384
0.107465
0.108386
0.109153
0.109779
0.110395
0.111344
0.111749
0.11172
0.111996
0.0802872
0.083015
0.0854924
0.0877329
0.0897634
0.0916002
0.093258
0.0947494
0.0960836
0.0972662
0.0982992
0.0991832
0.0999238
0.100534
0.101067
0.101872
0.102514
0.102723
0.102719
0.0723295
0.0748981
0.0772243
0.0793233
0.0812232
0.0829421
0.0844959
0.0858973
0.0871552
0.0882744
0.0892564
0.0901019
0.0908158
0.0914105
0.0919173
0.0924042
0.093343
0.093544
0.0931274
0.0645903
0.066977
0.0691329
0.0710753
0.0728332
0.0744255
0.0758682
0.0771734
0.0783492
0.0793997
0.080326
0.0811292
0.0818134
0.0823894
0.0828811
0.0833146
0.0839959
0.0845324
0.0839185
0.0570586
0.0592419
0.0612101
0.0629824
0.064588
0.0660452
0.0673693
0.068571
0.0696574
0.0706319
0.0714961
0.072251
0.0729001
0.0734521
0.0739238
0.0743191
0.074682
0.0751659
0.0750446
0.0497205
0.0516812
0.0534468
0.0550375
0.0564811
0.0577947
0.0589916
0.0600812
0.0610693
0.0619593
0.0627531
0.0634524
0.0640595
0.064581
0.0650272
0.0653985
0.0657178
0.0659182
0.0660469
0.0425614
0.0442837
0.045834
0.0472329
0.048505
0.0496655
0.0507254
0.0516926
0.0525725
0.0533684
0.0540829
0.054718
0.0552755
0.0557594
0.0561746
0.056522
0.0568143
0.0569905
0.0571023
0.0355663
0.0370378
0.0383622
0.039559
0.0406493
0.0416456
0.0425572
0.043391
0.044152
0.0448441
0.0454702
0.0460324
0.046532
0.0469708
0.0473504
0.0476697
0.0479352
0.0480993
0.0482053
0.0287199
0.029932
0.0310202
0.0320037
0.0329
0.0337198
0.0344711
0.0351605
0.0357929
0.0363721
0.0369012
0.0373823
0.0378162
0.0382028
0.0385412
0.0388291
0.0390677
0.0392204
0.0393254
0.0220072
0.0229536
0.0237931
0.0245499
0.0252399
0.0258717
0.0264528
0.0269889
0.027485
0.0279444
0.0283702
0.0287637
0.0291252
0.0294533
0.0297457
0.0299974
0.0302072
0.030352
0.0304454
0.0154371
0.016087
0.0166616
0.0171803
0.0176533
0.0180886
0.0184925
0.0188702
0.0192258
0.0195615
0.0198799
0.0201817
0.0204665
0.0207318
0.020974
0.0211866
0.0213665
0.0214932
0.0215783
0.0089457
0.00929334
0.00959238
0.00986075
0.0101069
0.0103379
0.0105588
0.0107737
0.0109852
0.011195
0.0114042
0.0116126
0.0118192
0.0120207
0.0122124
0.0123862
0.0125367
0.0126474
0.0127245
0.00242499
0.00243957
0.00243527
0.00242977
0.00243033
0.00244222
0.00246851
0.00251123
0.00257166
0.00265039
0.00274748
0.00286186
0.00299195
0.00313419
0.0032833
0.00342978
0.00356779
0.00367585
0.00378001
)
;

boundaryField
{
    leftWall
    {
        type            fixedFluxPressure;
        gradient        uniform 0;
        value           nonuniform List<scalar> 
50
(
5932.31
5916.71
5893.95
5862.23
5818.25
5320.39
2087.36
1281.55
1206.32
946.352
911.177
925.536
895.241
830.462
769.219
777.235
876.05
1018.28
1123.98
1171.33
1144.71
1140.16
1165.11
1217.49
1267.15
1318.18
1386.31
1272.3
179.776
38.0716
-0.474013
-0.293734
-0.137765
-0.0431416
0.0236201
0.086388
0.148231
0.2123
7.3798
12.1371
132.387
185.513
154.601
3.0567
-0.315835
-0.234599
-0.168363
-0.112526
-0.0627568
-0.0176557
)
;
    }
    rightWall
    {
        type            fixedFluxPressure;
        gradient        uniform 0;
        value           nonuniform List<scalar> 
50
(
3270.14
3260.23
2848.97
2601.34
1451.39
973.009
996.953
1017.68
1071.86
1108.22
1147.74
834.6
641.356
595.002
252.164
0.299346
0.256361
0.279346
0.280707
0.268908
0.25688
0.251708
0.246329
0.241625
0.236521
0.230278
0.216233
0.206836
0.19795
0.197992
0.192345
0.172772
0.158894
0.149314
0.139768
0.130405
0.121306
0.111996
0.102719
0.0931274
0.0839185
0.0750446
0.0660469
0.0571023
0.0482053
0.0393254
0.0304454
0.0215783
0.0127245
0.00378001
)
;
    }
    lowerWall
    {
        type            fixedFluxPressure;
        gradient        uniform 0;
        value           nonuniform List<scalar> 
62
(
5932.31
5959.74
6005.56
6058.45
6105.32
6136.84
6147.93
6137.03
6105.79
6057.91
5996.47
5924.76
5846.49
5765.38
5684.07
5603.36
5522.75
5441.95
5362.75
5289.77
5230.83
5188.49
5167.34
5167.34
5162.26
5152.37
5137.08
5007.33
2746.51
1315.09
1120.03
1050.25
1133.72
1134.65
1128.82
2584.74
2538.91
1598.13
1272.17
1047.33
1016.76
1040.57
1093.73
2584.74
2605.49
2678.79
2773.37
2888.04
3059.93
3158.48
3189.59
3151.27
3029.96
2873.35
2737.62
2625.44
2590.26
2624.99
2737.37
2891.01
3102.48
3270.14
)
;
    }
    atmosphere
    {
        type            totalPressure;
        rho             rho;
        psi             none;
        gamma           1;
        p0              uniform 0;
        value           nonuniform List<scalar> 
46
(
0
0
0
0
0
0
0
0
0
-3.10243e-07
-0.000177814
-0.00044896
-0.000716281
-0.000984924
-0.00122444
-0.00137307
-0.00140039
-0.00132161
-0.00117242
-0.000992106
-0.000814684
-0.000672733
-0.000599991
-0.000600648
-0.000639459
-0.000698236
-0.000769853
-0.000906303
-0.00109292
-0.00127916
-0.00144237
-0.00157942
-0.00168854
-0.00176891
-0.00181984
-0.00184087
-0.00183197
-0.00179331
-0.001726
-0.00163141
-0.00151223
-0.00137309
-0.00122446
-0.00107222
-0.000944343
-0.000752641
)
;
    }
    defaultFaces
    {
        type            empty;
    }
}


// ************************************************************************* //
