/*--------------------------------*- C++ -*----------------------------------*\
| =========                 |                                                 |
| \\      /  F ield         | OpenFOAM: The Open Source CFD Toolbox           |
|  \\    /   O peration     | Version:  2312                                  |
|   \\  /    A nd           | Website:  www.openfoam.com                      |
|    \\/     M anipulation  |                                                 |
\*---------------------------------------------------------------------------*/
FoamFile
{
    version     2.0;
    format      ascii;
    arch        "LSB;label=32;scalar=64";
    class       volScalarField;
    location    "0.45";
    object      alphas;
}
// * * * * * * * * * * * * * * * * * * * * * * * * * * * * * * * * * * * * * //

dimensions      [0 0 0 0 0 0 0];

internalField   nonuniform List<scalar> 
2268
(
2
2
2
2
2
2
2
2
2
2
2
2
2
2
2
2
2
2
2
2
2
2
1.99991
2
2
2
2
2
2
2
2
2
2
2
2
2
2
2
2
2
2
2
2
2
2
1.99992
2
2
2
2
2
2
2
2
2
2
2
2
2
2
2
2
2
2
2
2
2
2
1.99998
2
2
2
2
2
2
2
2
2
2
2
2
2
2
2
2
2
2
2
2
2
2
2
1.99976
1.99995
1.99984
1.99939
1.99824
1.99573
1.99099
1.98307
1.97123
1.95557
1.9377
1.92163
1.91388
1.92767
1.96542
2
2
2
2
2
2
2
1.99994
1.14448
1.17029
1.15327
1.1198
1.07311
1.01346
0.942337
0.863011
0.780131
0.699558
0.628312
0.574793
0.548671
0.580223
0.683569
0.99351
1.59099
2
2
2
2
2
1.99933
2.07532e-10
2.12134e-10
2.17383e-10
2.15636e-10
2.06859e-10
1.91996e-10
1.79339e-10
1.7024e-10
1.63505e-10
1.59452e-10
1.57491e-10
1.52364e-10
1.36815e-10
1.22646e-10
1.2341e-10
0.00974913
0.173429
1.05063
1.96705
2
2
2
1.99925
3.38846e-10
3.4348e-10
3.48299e-10
3.43956e-10
3.24066e-10
3.01944e-10
2.82147e-10
2.72713e-10
2.54645e-10
2.42685e-10
2.39223e-10
2.33906e-10
2.0946e-10
2.03188e-10
2.76534e-10
3.08328e-10
2.2685e-10
0.00963343
1.27657
2
2
2
1.99925
1.00013
1.00013
1.00004
1
1.00001
1.00001
1.00001
1.03393
1.40749
2.02323
2.39458
2.49173
2.4335
2.21983
1.57223
1.02812
1.00002
1.00003
1.22384
1.00013
1.0001
1
1
1
1
1.00999
1.65533
2.74139
2.98114
2.99168
2.95932
2.82612
2.76055
2.4394
1.26672
1.00289
1.00011
1.22763
1.00012
1.00002
1
1
1
1.00001
1.31918
2.57525
2.99373
2.9993
2.99929
2.86868
2.71702
2.36742
1.90024
1.27187
1.01244
1.00045
1.18201
1.00002
1
1
1
1
1.07778
2.12718
2.92382
2.9985
2.99886
2.99918
2.82765
2.22117
1.25964
1.23851
1.23421
1.02925
1.00071
1.13172
1
1
1
1
1.04495
1.67643
2.74892
2.99272
2.99833
2.99824
2.99107
2.64748
1.62894
1.22747
1.23736
1.19678
1.02251
1.00106
1.26114
1
1
1.00007
1
1.00029
1.50137
1.83285
1.99619
2.37845
2.42696
2.20984
1.62822
1.18929
1.03827
1.01834
1.05724
1.01944
1.00115
1.27011
1
1
1.00002
1.00001
1.03374
1.03138
1.00652
1.00577
1.06174
1.13847
1.18495
1.09935
1.0076
1.00011
1.0001
1.00007
1.00693
1.00095
1.27018
1.03558
1.00567
1.00018
1.00002
1.00621
1.00613
1.00405
1.00323
1.05891
1.29233
1.21801
1.00581
0.999988
1.00026
1.00024
1.00006
1.00001
1.00027
1.17308
5.22622e-10
5.33912e-10
5.37009e-10
5.30416e-10
5.11777e-10
4.73362e-10
4.42554e-10
4.15963e-10
3.99305e-10
3.94407e-10
3.99639e-10
3.83439e-10
3.36947e-10
3.23384e-10
5.18453e-10
8.97838e-10
1.21852e-09
6.05097e-10
0.064701
1.31478
1.99999
2
1.99994
9.18587e-10
9.28821e-10
9.31101e-10
9.33742e-10
9.00401e-10
8.58087e-10
8.21334e-10
7.87467e-10
7.67294e-10
8.09447e-10
8.38261e-10
8.08006e-10
7.10829e-10
6.72368e-10
1.11471e-09
3.22026e-09
4.02743e-09
2.97612e-09
9.71654e-09
0.0385136
1.02374
1.89995
1.99882
1.07632e-09
1.10166e-09
1.12779e-09
1.17443e-09
1.20957e-09
1.30966e-09
1.46697e-09
1.26052e-09
1.23708e-09
1.50044e-09
1.80291e-09
1.68978e-09
1.47055e-09
1.40792e-09
1.27206e-09
1.25083e-09
1.33419e-09
2.06076e-09
3.63093e-09
7.46865e-09
0.00974006
0.346401
1.02506
1.28448e-09
1.11085e-09
1.12011e-09
1.12943e-09
1.12474e-09
1.1343e-09
1.14405e-09
1.16808e-09
1.47355e-09
2.07034e-09
2.60077e-09
2.04114e-09
1.43487e-09
1.44891e-09
4.32492e-05
0.0003887
0.00010534
7.04151e-05
1.18203e-06
1.52327e-08
1.21915e-07
1.81103e-05
0.0178906
0.397669
0.372413
0.329839
0.268559
0.194077
0.11492
0.0447952
0.00448019
5.47459e-08
1.70385e-09
1.72349e-09
5.40688e-08
0.00773351
0.0629334
0.10769
0.139632
0.0859123
4.15997e-06
2.88437e-07
1.8988e-07
3.27907e-07
4.12851e-07
1.52826e-06
2.59916
2.57043
2.51942
2.43344
2.30152
2.1024
1.8029
1.39668
1.02582
0.702269
0.512674
0.576406
0.682845
0.788031
0.860765
0.899748
0.869836
0.773161
0.589362
0.371468
0.125522
0.00398873
0.011433
3
3
3
3
2.99997
2.9999
2.99947
2.99632
2.89228
2.68493
2.45949
2.14484
1.55365
1.01984
1.00343
1.00279
1.00258
1.00075
0.998709
0.977274
0.905223
0.831789
0.794229
3
3
3
2.99999
2.99994
2.99994
2.99994
2.98342
2.94162
2.88869
2.6812
2.24701
2.01557
1.86008
1.66207
1.50555
1.36855
1.25738
1.17064
1.10892
1.07199
1.05325
1.04702
3
3
3
2.99999
2.99999
2.99999
2.99931
2.97585
2.93951
2.92432
2.96382
2.99999
2.9999
2.99977
2.96979
2.92408
2.85364
2.75602
2.6414
2.52908
2.42951
2.33677
2.25342
3
3
3
3
3
2.99667
2.99148
2.99889
3
3
3
3
2.99996
2.99977
2.99986
2.99994
2.99999
3
3
3
3
3
3
3
3
3
3
3
2.99966
2.99716
2.99999
3
3
3
3
3
2.99989
2.99986
2.99987
2.99998
3
3
3
3
3
3
3
3
3
3
3
2.99995
3
3
3
3
3
3
3
3
3
3
3
3
3
3
3
3
3
3
3
3
3
3
3
3
3
3
3
3
3
3
3
3
3
3
3
3
3
3
2.99998
2.99983
3
3
3
3
3
3
3
3
3
3
3
3
3
3
3
3
3
3
3
3
3
2.99991
2.99895
3
3
3
3
3
3
3
3
3
3
3
3
3
3
3
3
3
3
3
3
2.99997
2.99977
2.9999
3
3
3
3
3
3
3
3
3
3
3
3
3
3
3
3
3
3
3
2.99999
2.99994
3
3
3
3
3
3
3
3
3
3
3
3
3
3
3
3
3
3
3
3
3
3
3
3
3
3
3
3
3
3
3
3
3
3
3
3
3
3
3
3
3
3
3
3
3
3
3
3
3
3
3
3
3
3
3
3
3
3
3
3
3
3
3
3
3
3
3
3
3
3
3
3
3
3
3
3
3
3
3
3
3
3
3
3
3
3
3
3
3
3
3
3
3
3
3
3
3
3
3
3
3
3
3
3
3
3
3
3
3
3
3
3
3
3
3
3
3
3
3
3
3
3
3
3
3
3
3
3
3
3
3
3
3
3
3
3
3
3
3
3
3
3
3
3
3
3
3
3
3
3
3
3
3
3
3
3
3
3
3
3
3
3
3
3
3
3
3
3
3
3
3
3
3
3
3
3
3
3
3
3
3
3
3
3
3
3
3
3
3
3
3
3
3
3
3
3
3
3
3
3
3
3
3
3
3
3
3
3
3
3
3
3
3
3
3
3
3
3
3
3
3
3
3
3
3
3
3
3
3
3
3
3
3
3
3
3
3
3
3
3
3
3
3
3
3
3
3
3
3
3
3
3
3
3
3
3
3
3
3
3
3
3
3
3
3
3
3
3
3
3
3
3
3
3
3
3
3
3
3
3
3
3
3
3
3
3
3
3
3
3
3
3
3
3
3
3
3
3
3
3
3
3
3
3
3
3
3
3
3
3
3
3
3
3
3
3
3
3
3
3
3
3
3
3
3
3
3
3
3
3
3
3
3
3
3
3
3
3
3
3
3
3
3
3
3
3
3
3
3
3
3
3
3
3
3
3
3
3
3
3
3
3
3
3
3
3
3
3
3
3
3
3
3
3
3
3
3
3
3
3
3
3
3
3
3
3
3
3
3
3
3
3
3
3
3
3
3
3
3
3
3
3
3
3
3
3
3
3
3
3
3
3
3
3
3
3
3
3
3
3
3
3
3
3
3
3
3
3
3
3
3
3
3
3
3
3
3
3
3
3
3
3
3
3
3
3
3
3
3
3
3
3
3
3
3
3
3
3
3
3
3
3
3
3
3
3
3
3
3
3
3
3
3
3
3
3
3
3
3
3
3
3
3
3
3
3
3
3
3
3
3
3
3
3
3
3
3
3
3
3
3
3
3
3
3
3
3
3
3
3
3
3
3
3
3
3
3
3
3
3
3
3
3
3
3
3
3
3
3
3
3
3
3
3
3
3
3
3
3
3
3
3
3
3
3
3
3
3
3
3
3
3
3
3
3
3
3
3
3
3
3
3
3
3
3
3
3
3
3
3
3
3
3
3
3
3
3
3
3
3
3
3
3
3
3
3
3
3
3
3
3
3
3
3
3
3
3
3
3
3
2
2
2.0837
1.95393
1.99942
1.9999
1.99674
2.0019
1.4993
1.80042
1.78502
1.72073
0.0502338
0.0608805
0.0452499
0.0248219
6.91383e-07
3.02957e-05
7.90309e-05
0.000139781
0.0178039
0.024139
0.0402508
0.0755936
0.736158
0.721364
0.764171
0.841418
1.04575
1.05019
1.06165
1.0817
2.20621
2.24451
2.32068
2.41599
3
3
3
3
3
3
3
2.99995
2.99995
2.99979
2.99975
2.99924
2.99916
2.99891
2.99891
2.99891
2.99894
2.99899
2.99945
2.99992
2.99982
3
3
2.99998
3
3
3
3
3
3
3
3
3
3
3
3
3
3
3
3
3
3
3
3
3
3
3
3
3
3
3
3
3
3
3
3
3
3
3
3
3
3
3
3
3
3
3
3
3
3
3
3
3
3
3
3
3
3
3
3
3
3
3
3
3
3
3
3
3
3
3
3
3
3
3
3
3
3
3
3
3
3
3
3
3
3
3
3
3
3
3
3
3
3
3
3
3
3
3
3
3
3
3
3
3
3
3
3
3
3
3
3
1.66327
1.33995
1.22017
1.12278
1.04977
1.04488
1.09975
1.12266
1.25176
1.26633
1.20281
1.00384
1.00001
1.00091
1.0024
1.00172
1.00001
1
1.00003
2.00406
1.98412
1.79241
1.54882
1.32538
1.25398
1.14612
0.888889
0.772812
0.884357
1.0268
1
1
1
1.00124
1.00427
1.00071
1
1
1.42668
1.01617
0.886617
0.926162
0.929202
0.836273
0.545015
0.150957
0.155536
0.319389
0.943288
0.999987
1.00364
1.00083
1
1.00428
1.00424
1.0003
1
0.00172527
0.00280449
0.00272401
0.00123705
0.00174037
0.00386576
0.00605048
0.0446808
0.139201
0.518571
0.988841
1.0482
1.08085
1
1
1.00237
1.00431
1.00119
1
0.000163121
0.000181308
0.000199887
0.000217782
0.0134411
0.0847318
0.310049
0.702925
1.01703
1.43754
1.86149
2.20009
2.30313
1.69258
1.10645
1.00015
1.00425
1.0012
1
0.0881937
0.105283
0.171098
0.329101
0.553253
0.887247
1.14878
1.38694
1.61791
2.23665
2.97345
2.99945
2.99985
2.72307
1.52775
1.00012
1.0014
1.00051
1
0.835079
0.871606
0.976885
1.13251
1.30683
1.39
1.76986
2.38317
2.97219
3
3
2.99991
2.99996
2.84911
1.41458
1.00011
1.00006
1.00001
1
1.15909
1.29565
1.48353
1.80438
2.20892
2.72168
3
3
3
3
3
3
3
2.50547
1.04784
1.00006
1
1
1
2.61931
2.82123
2.97976
3
3
3
3
3
3
3
3
3
2.67668
1.36156
1.00001
1.00002
1.00006
1
1
3
3
3
3
3
3
3
3
3
3
3
2.98915
1.95467
1
1
1.00004
1.00007
1
1
2.99982
2.99996
2.99996
2.99995
3
3
3
3
3
3
3
2.99674
2.04962
1
1
1.00001
1.00004
1
1
2.99924
2.99984
2.9999
2.99994
3
3
3
3
3
3
3
3
2.85019
1.72674
1
1
1
1
1
2.99964
2.99987
2.99993
3
3
3
3
3
3
3
3
3
3
2.94131
1.95885
1.04717
1
1
1
3
2.99998
3
3
3
3
3
3
3
3
3
3
3
3
2.98389
2.12926
1.04081
1
1
3
3
3
3
3
3
3
3
3
3
3
3
3
3
3
2.96793
1.86327
1
1
3
3
3
3
3
3
3
3
3
3
3
3
3
3
3
3
2.84971
1.34132
1
3
3
3
3
3
3
3
3
3
3
3
3
3
3
3
3
2.99844
2.08348
1
3
3
3
3
3
3
3
3
3
3
3
3
3
3
3
3
2.99612
1.71
1.00063
3
3
3
3
3
3
3
3
3
3
3
3
3
3
3
3
2.86842
1.16109
1.00454
3
3
3
3
3
3
3
3
3
3
3
3
3
3
3
3
2.8256
1.92497
1.01715
3
3
3
3
3
3
3
3
3
3
3
3
3
3
3
2.99947
2.8564
2.9888
1.06176
3
3
3
3
3
3
3
3
3
3
3
3
3
3
3
2.99987
2.98416
3
1.16799
3
3
3
3
3
3
3
3
3
3
3
3
3
3
3
3
3
3
1.26869
3
3
3
3
3
3
3
3
3
3
3
3
3
3
3
3
3
3
1.27907
3
3
3
3
3
3
3
3
3
3
3
3
3
3
3
3
3
3
1.31944
3
3
3
3
3
3
3
3
3
3
3
3
3
3
3
3
3
3
1.75546
3
3
3
3
3
3
3
3
3
3
3
3
3
3
3
3
3
3
2.16214
3
3
3
3
3
3
3
3
3
3
3
3
3
3
3
3
3
3
1.87523
3
3
3
3
3
3
3
3
3
3
3
3
3
3
3
3
3
3
1.43158
3
3
3
3
3
3
3
3
3
3
3
3
3
3
3
3
3
2.98657
1.41544
3
3
3
3
3
3
3
3
3
3
3
3
3
3
3
3
3
2.94956
1.41561
3
3
3
3
3
3
3
3
3
3
3
3
3
3
3
3
3
2.95911
2.37425
3
3
3
3
3
3
3
3
3
3
3
3
3
3
3
3
3
2.99002
2.99115
3
3
3
3
3
3
3
3
3
3
3
3
3
3
3
3
3
3
2.78374
3
3
3
3
3
3
3
3
3
3
3
3
3
3
3
3
3
3
1.69915
3
3
3
3
3
3
3
3
3
3
3
3
3
3
3
3
3
3
1.24742
3
3
3
3
3
3
3
3
3
3
3
3
3
3
3
3
3
2.98372
1.18778
3
3
3
3
3
3
3
3
3
3
3
3
3
3
3
3
3
2.82318
1.15067
3
3
3
3
3
3
3
3
3
3
3
3
3
3
3
3
3
2.61641
1.14156
3
3
3
3
3
3
3
3
3
3
3
3
3
3
3
3
3
2.63533
1.14155
3
3
3
3
3
3
3
3
3
3
3
3
3
3
3
3
3
2.84709
1.37858
3
3
3
3
3
3
3
3
3
3
3
3
3
3
3
3
3
2.99951
2.82483
)
;

boundaryField
{
    leftWall
    {
        type            calculated;
        value           nonuniform List<scalar> 
50
(
2
2
2
2
1.99976
1.14448
2.07532e-10
3.38846e-10
5.22622e-10
9.18587e-10
1.07632e-09
1.28448e-09
0.397669
2.59916
3
3
3
3
3
3
3
3
3
3
3
3
3
3
3
3
3
3
3
3
3
3
3
3
3
3
3
3
3
3
3
3
3
3
3
3
)
;
    }
    rightWall
    {
        type            calculated;
        value           nonuniform List<scalar> 
50
(
1.22384
1.22763
1.18201
1.13172
1.26114
1.27011
1.27018
1.17308
1.00003
1
1
1
1
1
1
1
1
1
1
1
1
1
1
1
1
1.00063
1.00454
1.01715
1.06176
1.16799
1.26869
1.27907
1.31944
1.75546
2.16214
1.87523
1.43158
1.41544
1.41561
2.37425
2.99115
2.78374
1.69915
1.24742
1.18778
1.15067
1.14156
1.14155
1.37858
2.82483
)
;
    }
    lowerWall
    {
        type            calculated;
        value           nonuniform List<scalar> 
62
(
2
2
2
2
2
2
2
2
2
2
2
2
2
2
2
2
2
2
2
2
2
2
1.99991
1.99991
1.99992
1.99998
2
1.99994
1.99933
1.99925
1.99925
2
2
2.0837
1.95393
1.00013
1.00013
1.00012
1.00002
1
1
1
1.03558
1.00013
1.00013
1.00004
1
1.00001
1.00001
1.00001
1.03393
1.40749
2.02323
2.39458
2.49173
2.4335
2.21983
1.57223
1.02812
1.00002
1.00003
1.22384
)
;
    }
    atmosphere
    {
        type            calculated;
        value           nonuniform List<scalar> 
46
(
3
3
3
3
3
3
3
3
3
3
3
3
3
3
3
3
3
3
3
3
3
3
3
3
3
3
3
3
3
3
3
3
3
3
3
3
3
3
3
3
3
3
3
3
3
2.82483
)
;
    }
    defaultFaces
    {
        type            empty;
    }
}


// ************************************************************************* //
