/*--------------------------------*- C++ -*----------------------------------*\
| =========                 |                                                 |
| \\      /  F ield         | OpenFOAM: The Open Source CFD Toolbox           |
|  \\    /   O peration     | Version:  2312                                  |
|   \\  /    A nd           | Website:  www.openfoam.com                      |
|    \\/     M anipulation  |                                                 |
\*---------------------------------------------------------------------------*/
FoamFile
{
    version     2.0;
    format      ascii;
    arch        "LSB;label=32;scalar=64";
    class       volScalarField;
    location    "0.45";
    object      alpha.water_0;
}
// * * * * * * * * * * * * * * * * * * * * * * * * * * * * * * * * * * * * * //

dimensions      [0 0 0 0 0 0 0];

internalField   nonuniform List<scalar> 
2268
(
3.27307e-12
3.30039e-12
2.99821e-12
2.93245e-12
2.94231e-12
3.03507e-12
3.29267e-12
3.65253e-12
4.18717e-12
4.85185e-12
5.46812e-12
5.89021e-12
5.98793e-12
5.79058e-12
5.47802e-12
6.19686e-12
8.37464e-12
1.53543e-11
3.95818e-11
7.68175e-11
1.08594e-10
1.77551e-10
2.33237e-10
2.37312e-11
2.41734e-11
2.40225e-11
2.39644e-11
2.39846e-11
2.52638e-11
2.77874e-11
2.95005e-11
3.14063e-11
3.3172e-11
3.45008e-11
3.54518e-11
3.63467e-11
3.65371e-11
3.56395e-11
3.49774e-11
3.6531e-11
6.92815e-11
1.49558e-10
1.80588e-10
1.36859e-10
2.24931e-09
1.38059e-09
6.10195e-11
6.07618e-11
6.04751e-11
6.06866e-11
6.07468e-11
1.23023e-10
1.8653e-10
1.70407e-10
1.49681e-10
1.31564e-10
1.02369e-10
8.06039e-11
7.72578e-11
7.62512e-11
7.65723e-11
7.85713e-11
7.72396e-11
8.47737e-11
1.36889e-10
3.50638e-10
8.24409e-10
4.07726e-09
1.5511e-09
5.76522e-11
5.31529e-11
5.4616e-11
5.57e-11
2.69e-09
2.09946e-09
1.71376e-09
1.32967e-09
9.93252e-10
7.6658e-10
5.73174e-10
4.74609e-10
4.31902e-10
4.48551e-10
4.76957e-10
2.67358e-10
1.16689e-10
6.47233e-11
3.28288e-10
2.41733e-09
3.60056e-09
1.12986e-08
1.55703e-09
1.52215e-11
1.42193e-11
1.5217e-11
1.42243e-11
0.000119762
0.000752873
0.00232532
0.00535917
0.0103004
0.0172428
0.0255452
0.0334003
0.0378546
0.0323072
0.0158455
2.7688e-11
2.85981e-11
2.81928e-11
4.46469e-10
2.87589e-09
9.02739e-10
2.02675e-08
4.99117e-08
0.389062
0.376247
0.385138
0.402677
0.427312
0.458827
0.496472
0.538586
0.582781
0.626016
0.664649
0.694327
0.710367
0.697161
0.64851
0.499314
0.209454
1.01055e-09
4.60596e-10
1.08348e-09
4.03815e-10
2.2621e-08
9.41385e-08
1
1
1
1
1
1
1
1
1
1
1
1
1
1
1
0.99518
0.917657
0.493665
0.02151
1.01221e-08
1.04812e-09
2.69026e-08
9.41683e-08
1
1
1
1
1
1
1
1
1
1
1
1
1
1
1
1
1
0.997757
0.390893
2.8962e-08
3.22093e-09
2.88649e-08
5.88866e-08
1.87612e-11
2.29461e-11
3.48443e-11
5.17686e-11
7.67611e-11
1.11839e-10
1.5711e-10
1.72825e-10
1.70175e-10
1.40381e-10
1.03508e-10
8.41077e-11
8.29203e-11
8.19615e-11
8.385e-11
8.77196e-11
6.52638e-11
2.2251e-11
2.1675e-12
1.88674e-11
3.23698e-11
5.70547e-11
9.09601e-11
1.40298e-10
1.93509e-10
2.16266e-10
2.10636e-10
1.39379e-10
6.48529e-11
4.80823e-11
2.34871e-11
1.34269e-11
1.35688e-11
2.35587e-09
1.54018e-09
2.20344e-10
5.09537e-11
2.38247e-12
1.95204e-11
4.80579e-11
9.32772e-11
1.48624e-10
2.0501e-10
2.29943e-10
2.25908e-10
1.48302e-10
9.9245e-11
4.09687e-10
8.08343e-10
6.16402e-11
1.42419e-11
1.20795e-07
9.07844e-08
1.18078e-08
2.83359e-11
2.91531e-11
4.61513e-12
2.16319e-11
6.76164e-11
1.27563e-10
1.78275e-10
2.20147e-10
2.30034e-10
1.91664e-10
1.70616e-10
1.99274e-09
5.28445e-08
5.50052e-09
4.84845e-11
6.76373e-07
1.11077e-06
2.42267e-07
3.64124e-11
3.45141e-11
3.06806e-11
5.2116e-12
2.26653e-11
7.24486e-11
1.37508e-10
1.90454e-10
2.07333e-10
1.80301e-10
1.97467e-09
2.03831e-10
5.71812e-08
1.04314e-06
4.38015e-09
3.7753e-07
5.85748e-06
2.08855e-06
4.81267e-11
4.07729e-11
5.12672e-11
3.28075e-11
4.69401e-12
2.31471e-11
7.04488e-11
1.23185e-10
1.86608e-10
1.87113e-10
2.01082e-10
1.02682e-08
1.98498e-10
9.94725e-11
7.50849e-06
2.25694e-05
6.68063e-05
2.04911e-05
5.11964e-11
4.90429e-11
6.23793e-11
5.92991e-11
3.29512e-11
4.81592e-12
2.28969e-11
9.3552e-09
3.41716e-10
9.74524e-11
5.60543e-09
4.04219e-09
3.26477e-09
1.51027e-05
3.01654e-06
4.74761e-07
0.000264412
0.000197255
8.69037e-06
1.61678e-07
2.73884e-08
5.65766e-10
7.39421e-11
3.3908e-11
6.44241e-12
2.30803e-05
1.04862e-06
5.29377e-09
1.09264e-10
2.21569e-08
1.92309e-08
6.93994e-10
0.000140673
3.72836e-07
5.52286e-07
0.000673777
0.000179619
2.62674e-05
7.08141e-06
5.6731e-07
7.20353e-11
7.12569e-11
3.80217e-11
7.27887e-12
1
1
1
1
1
1
1
1
1
1
1
1
1
1
1
1
1
1
0.975364
0.366856
3.1794e-09
3.19661e-09
2.49342e-08
1
1
1
1
1
1
1
1
1
1
1
1
1
1
1
1
1
1
1
0.986224
0.505625
0.0553604
1.30935e-16
1
1
1
1
1
1
1
1
1
1
1
1
1
1
1
1
1
1
1
1
0.996649
0.829695
0.485486
1
1
1
1
1
1
1
1
1
1
1
1
1
1
0.999996
0.99987
0.999963
0.999977
1
1
1
0.999987
0.990317
0.88629
0.893937
0.906694
0.924932
0.946888
0.96982
0.989396
0.999448
1
1
1
1
0.998422
0.972786
0.91974
0.874556
0.919691
0.999997
1
1
1
1
0.999999
0.155026
0.165057
0.182737
0.212389
0.25765
0.325432
0.425973
0.560443
0.678319
0.78351
0.846581
0.823993
0.682462
0.379685
0.190144
0.107183
0.131238
0.224254
0.407031
0.628536
0.882411
0.997906
0.9916
2.8329e-24
2.98277e-24
2.74924e-24
2.68384e-29
2.74898e-24
2.8891e-30
4.02919e-20
2.87007e-20
0.0350004
0.101201
0.164385
0.159541
0.0120502
7.35723e-18
7.39443e-18
1.3235e-17
2.12509e-12
0.000543294
0.00112934
0.025457
0.100626
0.178573
0.224513
7.56578e-13
1.16985e-12
9.05462e-14
5.29903e-12
3.34129e-11
4.4347e-11
3.25459e-09
1.67474e-08
1.80574e-24
-3.97276e-14
-2.02329e-16
-5.18806e-24
6.21348e-23
8.68155e-06
7.35723e-18
2.65703e-08
6.91644e-07
7.31665e-10
7.30264e-10
-4.00111e-19
1.34384e-18
7.37189e-19
5.51902e-19
1.28763e-11
3.30221e-11
1.15077e-11
4.38172e-13
1.11975e-12
7.72761e-09
1.77313e-07
4.55003e-07
4.49243e-07
4.32314e-07
4.44304e-07
2.38565e-06
3.16053e-05
7.66824e-05
1.05306e-06
5.14753e-06
2.34318e-06
6.68761e-07
3.59664e-07
2.94008e-07
1.33113e-07
8.72153e-08
4.99108e-08
2.04411e-11
6.93932e-11
5.95385e-11
2.69371e-12
8.68615e-13
3.04918e-08
1.12698e-07
1.83292e-07
3.94374e-07
4.5387e-07
4.52042e-07
4.8784e-07
1.4303e-05
7.69177e-05
4.61501e-05
1.9706e-05
3.60036e-06
1.26596e-06
7.81558e-07
5.55669e-07
3.49238e-07
2.23244e-07
1.37905e-07
1.93687e-11
7.94377e-11
1.11392e-10
2.04839e-11
7.80858e-13
2.07722e-09
2.67483e-08
4.71183e-14
1.97405e-17
4.71006e-14
9.56886e-21
7.82889e-08
9.4302e-12
3.95122e-05
4.57722e-05
4.30796e-05
4.66681e-06
1.60823e-23
-5.0196e-28
2.84671e-08
7.41258e-08
8.46611e-08
8.87832e-08
1.42551e-11
7.07567e-11
1.22364e-10
6.02721e-11
8.19624e-12
3.52316e-10
1.11501e-11
1.13433e-11
4.40605e-11
1.42392e-11
1.31619e-11
5.8838e-12
9.85145e-12
9.50031e-13
2.35019e-15
2.99878e-15
2.35019e-15
1.29503e-10
2.90796e-12
7.47988e-35
1.53692e-30
1.01625e-30
5.62921e-28
8.53387e-12
4.99168e-11
1.02944e-10
5.86349e-11
1.0634e-11
2.23559e-11
1.81332e-11
2.82699e-11
9.67088e-11
2.26262e-10
2.4214e-10
1.23813e-10
4.22102e-11
7.70193e-12
2.0476e-12
4.94194e-13
3.84052e-14
1.6663e-16
1.36845e-16
2.63821e-17
4.25932e-18
6.44954e-18
1.57116e-16
4.45537e-12
2.83998e-11
6.29885e-11
3.81098e-11
6.89669e-12
6.66754e-12
1.33089e-11
3.15008e-11
1.16269e-10
2.27262e-10
2.21404e-10
1.17907e-10
3.85029e-11
5.53089e-12
5.81102e-13
7.7672e-14
9.62097e-15
3.60215e-15
7.26401e-16
3.0481e-17
9.71765e-18
3.1731e-17
5.92664e-16
1.66723e-12
1.23546e-11
2.95863e-11
1.81559e-11
3.28113e-12
3.70677e-12
9.59041e-12
2.52173e-11
6.91426e-11
1.6104e-10
1.24203e-10
5.75503e-11
1.33029e-11
1.09548e-12
3.67243e-14
8.14249e-16
1.08371e-17
1.53853e-18
5.64862e-19
2.48407e-18
1.17209e-17
6.25078e-17
7.99683e-16
5.35515e-13
4.31855e-12
1.06468e-11
6.38609e-12
1.19436e-12
1.6083e-12
4.42905e-12
1.4391e-11
3.35944e-11
6.18393e-11
4.30218e-11
1.59358e-11
1.88397e-12
7.0869e-14
3.30383e-16
1.31784e-19
8.44234e-23
7.72856e-21
4.64291e-19
3.86386e-18
1.26351e-17
7.90707e-17
5.4769e-16
1.06456e-13
9.02999e-13
2.43529e-12
1.35478e-12
2.83584e-13
6.09164e-13
1.14654e-12
4.23857e-12
1.02529e-11
1.61415e-11
8.13002e-12
1.18443e-12
2.47678e-14
3.68454e-17
1.75739e-21
-6.85526e-22
8.81485e-23
1.26436e-20
4.43815e-19
2.47572e-18
7.49716e-18
1.06366e-17
1.23627e-17
1.08965e-14
1.00414e-13
2.4555e-13
1.45701e-13
4.39263e-14
1.17446e-13
2.82129e-13
7.99797e-13
1.47267e-12
1.86975e-12
5.19184e-13
1.19662e-14
8.45983e-18
5.87022e-23
-2.58179e-22
-4.41197e-23
3.82589e-22
4.60308e-21
4.73793e-20
2.09567e-19
7.09269e-19
1.25185e-18
1.11959e-18
2.83737e-20
1.60684e-18
5.55559e-17
5.11889e-16
2.88074e-15
1.00759e-14
2.5353e-14
5.23683e-14
8.35662e-14
6.82053e-14
7.50291e-15
2.58864e-17
7.52876e-22
-3.82072e-23
-1.8062e-23
3.18231e-23
2.30573e-22
9.09592e-22
2.10175e-21
1.8091e-20
7.79269e-20
1.0721e-19
9.16875e-20
1.57109e-43
7.94609e-42
3.56012e-40
1.16259e-38
5.72549e-37
1.14388e-35
1.95405e-34
3.21515e-33
6.371e-32
9.14532e-31
1.33968e-30
3.16497e-28
6.95411e-27
9.47883e-26
8.69721e-25
5.53778e-24
2.96026e-23
1.26559e-22
4.30043e-22
1.58293e-21
4.10013e-21
4.88542e-21
4.51984e-21
1.07579e-43
9.27794e-42
4.39045e-40
1.45091e-38
3.7822e-37
8.07266e-36
1.51735e-34
2.70142e-33
4.56651e-32
6.67752e-31
8.99387e-30
9.60435e-29
7.93428e-28
5.20629e-27
2.79395e-26
1.32702e-25
5.79079e-25
2.52387e-24
9.80637e-24
6.46252e-23
1.34561e-22
1.66733e-22
1.81785e-22
3.45225e-44
3.28479e-42
1.73102e-40
6.2601e-39
1.74723e-37
3.88318e-36
7.63643e-35
1.3527e-33
2.24119e-32
3.32249e-31
3.92615e-30
3.55502e-29
2.55209e-28
1.48171e-27
6.93939e-27
2.79494e-26
1.14255e-25
4.57175e-25
1.25712e-24
2.53927e-24
5.29345e-24
8.87588e-24
9.35827e-24
7.37958e-45
7.97628e-43
4.65037e-41
1.81651e-39
5.34326e-38
1.24189e-36
2.56247e-35
4.78525e-34
7.8665e-33
1.0388e-31
1.18348e-30
9.82458e-30
6.26663e-29
3.19005e-28
1.3031e-27
4.35402e-27
1.23612e-26
3.09576e-26
6.87695e-26
2.68966e-25
5.79751e-25
7.58785e-25
9.09166e-25
1.4004e-45
1.69578e-43
1.06747e-41
4.49908e-40
1.41491e-38
3.50318e-37
7.41188e-36
1.40136e-34
2.162e-33
2.63454e-32
2.62906e-31
1.99219e-30
1.19529e-29
5.76118e-29
2.28606e-28
7.59724e-28
2.22295e-27
5.72541e-27
1.39107e-26
3.10019e-26
8.16074e-26
1.25147e-25
1.44229e-25
1.66664e-46
2.12234e-44
1.38285e-42
6.08872e-41
1.96838e-39
5.01137e-38
1.05465e-36
1.86179e-35
2.71838e-34
3.22571e-33
3.04505e-32
2.28938e-31
1.38161e-30
6.79572e-30
2.7763e-29
9.54092e-29
2.82419e-28
7.38424e-28
1.72707e-27
3.54292e-27
1.09894e-26
2.09194e-26
2.64299e-26
8.24901e-48
1.1307e-45
7.51606e-44
3.56364e-42
1.19622e-40
3.14211e-39
6.62928e-38
1.13816e-36
1.60073e-35
1.87733e-34
1.85779e-33
1.49352e-32
9.71972e-32
5.16496e-31
2.30012e-30
8.99295e-30
3.01573e-29
9.07006e-29
2.43737e-28
5.83395e-28
1.1773e-27
3.2514e-27
5.1934e-27
2.61356e-49
3.63739e-47
2.57027e-45
1.22962e-43
4.20287e-42
1.11447e-40
2.36992e-39
4.13123e-38
5.98393e-37
7.30954e-36
7.63383e-35
6.70503e-34
4.82349e-33
2.87654e-32
1.43412e-31
6.15659e-31
2.33536e-30
7.99094e-30
2.4073e-29
6.3009e-29
1.3923e-28
3.33629e-28
8.38076e-28
4.48018e-51
6.77487e-49
4.93175e-47
2.4785e-45
8.90866e-44
2.49344e-42
5.59379e-41
1.03179e-39
1.58849e-38
2.02852e-37
2.21685e-36
2.02074e-35
1.55164e-34
1.01978e-33
5.9184e-33
2.9733e-32
1.33964e-31
5.37689e-31
1.82112e-30
6.03002e-30
1.58314e-29
3.42835e-29
1.18084e-28
5.77991e-53
8.99482e-51
7.16068e-49
3.87183e-47
1.49487e-45
4.54657e-44
1.12509e-42
2.30397e-41
3.9459e-40
5.63083e-39
6.7856e-38
6.9131e-37
5.9537e-36
4.33305e-35
2.67589e-34
1.42419e-33
6.64585e-33
2.9928e-32
1.15024e-31
3.99336e-31
1.38351e-30
4.43274e-30
1.07007e-29
5.65923e-55
9.69018e-53
8.25166e-51
4.89566e-49
2.07657e-47
6.94911e-46
1.8889e-44
4.23435e-43
7.92212e-42
1.24252e-40
1.65648e-39
1.88307e-38
1.82691e-37
1.51467e-36
1.08044e-35
6.72465e-35
3.70665e-34
1.79866e-33
7.30775e-33
3.01375e-32
1.07789e-31
3.31469e-31
9.18667e-31
4.34574e-57
8.35077e-55
8.00201e-53
5.04636e-51
2.36224e-49
8.72823e-48
2.6188e-46
6.46624e-45
1.32597e-43
2.3456e-42
3.51446e-41
4.5048e-40
4.94982e-39
4.68349e-38
3.83891e-37
2.7374e-36
1.69918e-35
9.14737e-35
4.25313e-34
1.79462e-33
6.47468e-33
2.14317e-32
5.68533e-32
1.89857e-59
4.17201e-57
4.41212e-55
3.05648e-53
1.66746e-51
6.90102e-50
2.32213e-48
6.4454e-47
1.54856e-45
3.09854e-44
5.27584e-43
7.6576e-42
9.52017e-41
1.02041e-39
9.48443e-39
7.67757e-38
5.42744e-37
3.33168e-36
1.70566e-35
8.55355e-35
3.44724e-34
1.26251e-33
3.91881e-33
6.0465e-62
1.54867e-59
1.903e-57
1.5211e-55
8.89892e-54
4.12573e-52
1.5605e-50
4.95188e-49
1.31417e-47
2.95911e-46
5.71265e-45
9.57605e-44
1.36384e-42
1.67575e-41
1.78269e-40
1.65269e-39
1.33417e-38
9.00811e-38
6.23909e-37
3.23493e-36
1.5696e-35
6.54217e-35
2.26724e-34
1.45486e-64
4.57258e-62
6.29921e-60
5.55454e-58
3.66681e-56
1.89987e-54
8.07061e-53
2.85869e-51
8.54051e-50
2.17891e-48
4.79165e-47
9.11931e-46
1.50609e-44
2.16082e-43
2.69159e-42
2.90784e-41
2.72587e-40
2.21846e-39
1.57053e-38
9.74947e-38
5.26794e-37
2.65991e-36
1.1275e-35
3.16055e-67
1.27769e-64
2.16879e-62
2.31278e-60
1.78676e-58
1.07355e-56
5.22077e-55
2.10421e-53
7.14437e-52
2.07073e-50
5.17783e-49
1.12552e-47
2.13912e-46
3.56602e-45
5.19098e-44
6.58616e-43
7.96115e-42
9.05055e-41
8.36546e-40
6.55427e-39
4.44831e-38
2.73289e-37
1.26923e-36
4.14723e-70
2.47986e-67
5.36759e-65
7.04969e-63
6.62272e-61
4.80852e-59
2.82222e-57
1.3771e-55
5.68895e-54
2.01354e-52
6.15266e-51
1.63106e-49
3.76161e-48
7.5443e-47
1.31448e-45
2.04847e-44
2.89982e-43
3.57147e-42
3.86175e-41
3.62152e-40
2.78578e-39
2.24916e-38
1.32675e-37
2.31767e-73
2.22008e-70
6.17685e-68
1.00235e-65
1.146e-63
1.00358e-61
7.04805e-60
4.04525e-58
1.84965e-56
8.366e-55
3.00211e-53
9.36908e-52
2.55278e-50
6.10338e-49
1.2866e-47
2.37574e-46
4.14169e-45
6.36559e-44
8.62433e-43
1.00571e-41
1.06047e-40
8.65118e-40
8.03221e-39
4.76001e-77
1.20269e-73
4.58744e-71
9.52019e-69
1.36059e-66
1.47396e-64
1.27522e-62
9.09577e-61
5.46263e-59
2.80355e-57
1.24304e-55
4.80025e-54
1.62399e-52
4.83008e-51
1.26221e-49
2.84786e-48
5.91839e-47
1.05819e-45
1.68658e-44
2.42433e-43
3.1334e-42
3.52764e-41
3.40771e-40
1.01732e-81
2.00809e-77
1.10644e-74
3.0371e-72
5.59008e-70
7.70362e-68
8.41771e-66
7.54436e-64
5.66796e-62
3.62341e-60
1.99315e-58
9.5185e-57
3.97725e-55
1.46799e-53
4.85017e-52
1.43528e-50
3.8402e-49
9.24597e-48
1.95433e-46
3.13882e-45
6.03379e-44
7.56573e-43
1.13748e-41
1.88484e-87
8.26826e-82
7.49823e-79
2.96094e-76
7.59896e-74
1.44387e-71
2.16581e-69
2.65967e-67
2.73382e-65
2.3848e-63
1.78071e-61
1.14448e-59
6.36183e-58
3.07954e-56
1.31314e-54
5.00767e-53
1.72137e-51
5.24922e-50
1.40601e-48
3.70055e-47
9.08853e-46
1.76417e-44
2.84672e-43
3.50318e-95
1.90634e-87
3.43518e-84
2.15051e-81
8.34179e-79
2.35105e-76
5.17364e-74
9.25808e-72
1.38323e-69
1.75913e-67
1.93428e-65
1.86337e-63
1.58942e-61
1.20839e-59
8.17827e-58
4.81075e-56
2.65414e-54
1.24044e-52
5.01758e-51
1.78731e-49
5.93285e-48
1.42518e-46
4.3334e-45
2.79371e-108
6.99843e-96
4.72079e-92
6.35872e-89
5.0975e-86
2.93377e-83
1.31368e-80
4.7972e-78
1.47101e-75
3.81454e-73
8.49939e-71
1.63594e-68
2.72916e-66
3.95843e-64
5.01219e-62
5.60843e-60
5.6173e-58
4.86567e-56
3.69618e-54
2.45325e-52
1.42143e-50
7.17817e-49
3.00247e-47
4.78837e-07
6.56941e-07
3.79393e-07
9.83724e-07
-2.10683e-10
-1.27276e-09
8.62029e-09
0.000217436
0.243477
0.0884221
0.095697
0.124991
0.971417
0.964111
0.971491
0.978225
0.999973
0.99993
0.999867
0.999783
0.986394
0.980429
0.964329
0.936842
0.291442
0.299291
0.250196
0.188499
4.1714e-19
1.49464e-24
1.59335e-24
1.40902e-24
3.76295e-08
3.16836e-08
2.29142e-08
2.01272e-08
1.15294e-07
8.8525e-08
7.71404e-08
7.33891e-08
7.10618e-08
4.25337e-08
2.55126e-08
4.78608e-08
5.62036e-28
8.43571e-19
1.43956e-19
1.43032e-26
3.80852e-16
4.13654e-16
2.448e-16
9.13711e-16
9.02965e-16
9.09689e-16
9.74169e-16
1.4106e-14
7.7043e-16
7.42855e-16
2.0725e-15
2.58385e-14
1.33422e-16
1.44543e-16
9.66287e-17
6.3263e-17
8.50672e-18
5.5616e-18
4.20704e-18
2.60884e-18
7.92255e-19
5.12821e-19
3.69107e-19
3.08745e-19
5.17044e-20
3.22418e-20
2.77465e-20
2.38156e-20
2.78322e-21
2.09887e-21
1.64756e-21
1.35002e-21
1.40317e-22
1.08227e-22
9.83248e-23
8.12131e-23
8.74299e-24
7.09722e-24
6.39897e-24
5.51586e-24
8.51725e-25
7.23109e-25
6.6855e-25
5.78208e-25
1.3498e-25
1.19476e-25
1.11834e-25
9.91555e-26
2.64365e-26
2.47232e-26
2.42105e-26
2.31426e-26
5.58926e-27
5.44608e-27
5.55787e-27
5.1775e-27
1.02817e-27
1.05675e-27
1.08229e-27
1.09641e-27
1.77623e-28
1.95695e-28
2.09179e-28
2.06473e-28
2.55397e-29
3.14386e-29
3.47568e-29
3.60659e-29
2.90882e-30
4.22279e-30
5.1668e-30
5.59604e-30
2.23414e-31
4.48189e-31
6.1688e-31
7.22465e-31
1.19869e-32
3.82701e-32
6.54697e-32
8.59694e-32
6.45329e-34
1.89645e-33
5.50007e-33
1.18852e-32
4.17612e-35
8.77675e-35
2.583e-34
1.29751e-33
4.58877e-36
9.96377e-36
2.50137e-35
1.00615e-34
6.50381e-37
1.61822e-36
3.82448e-36
1.08915e-35
4.98628e-38
1.54648e-37
4.21968e-37
1.23031e-36
2.68767e-39
9.71596e-39
3.1357e-38
9.89313e-38
1.09274e-40
4.75139e-40
1.81451e-39
6.33557e-39
3.53371e-42
1.94234e-41
9.25034e-41
3.83824e-40
7.80607e-44
5.75625e-43
3.67841e-42
1.99571e-41
8.96438e-46
1.06411e-44
1.06428e-43
8.25862e-43
0.000328498
3.80541e-06
-2.57231e-20
-1.18344e-20
4.29286e-20
-5.8639e-11
-2.32388e-12
0.0391827
0.0618629
0.0470233
0.00608811
4.58306e-08
4.39645e-07
3.53161e-07
4.38394e-08
5.78008e-09
1.06749e-10
4.23491e-11
7.67809e-12
0.00027717
0.0288662
0.0953473
0.116754
0.120519
0.152499
0.28482
0.513982
0.590887
0.33722
0.00973295
6.76164e-08
9.61495e-08
3.43384e-07
2.30356e-07
3.72967e-08
1.13356e-10
1.36468e-10
1.23287e-11
0.251977
0.446423
0.50277
0.490028
0.498364
0.557777
0.714406
0.909133
0.902817
0.589696
0.0189457
3.82384e-09
3.75026e-09
3.01424e-07
4.16962e-07
1.15812e-07
1.60943e-08
8.66467e-12
8.895e-12
0.998253
0.996893
0.996826
0.998796
0.998926
0.996752
0.994389
0.967789
0.882618
0.477437
0.00908075
0.000267025
3.76015e-09
1.28174e-07
4.17067e-07
2.96886e-07
1.44664e-08
6.59441e-10
8.04486e-12
0.999762
0.999735
0.999715
0.99971
0.992499
0.934927
0.712423
0.402793
0.191031
0.0581368
0.00164347
4.72363e-06
4.2517e-06
3.52348e-07
3.56122e-07
2.42881e-07
8.22358e-09
1.90844e-10
8.02707e-12
0.935974
0.923412
0.860815
0.709237
0.523369
0.252594
0.0958223
6.42173e-14
1.98503e-16
1.24611e-17
0.000127482
0.000201898
3.42475e-05
3.66399e-08
9.51851e-08
4.20099e-08
1.01963e-09
3.8635e-11
7.93732e-12
0.230916
0.224523
0.148427
0.0746388
-1.39198e-19
-1.17176e-22
2.49066e-19
6.39167e-11
5.69225e-11
2.2492e-11
2.75747e-10
2.28679e-05
5.2602e-06
2.35667e-11
2.29149e-11
1.41352e-08
1.66269e-11
2.20431e-11
7.1327e-12
1.59153e-24
-2.04018e-26
1.44332e-26
3.86573e-27
1.0917e-10
6.00202e-10
5.02039e-10
2.97999e-10
1.4498e-10
2.25689e-10
3.10759e-07
7.13311e-08
7.60322e-08
1.76837e-11
3.56213e-10
3.93831e-09
1.66569e-11
1.67105e-11
4.97851e-12
2.72443e-08
2.89871e-08
2.02507e-08
8.41369e-09
3.52669e-09
1.79199e-09
7.4731e-10
2.90669e-10
1.19658e-10
1.28637e-08
1.40746e-07
9.72325e-08
8.87434e-12
1.86807e-11
1.92297e-10
5.40009e-10
1.99172e-11
1.35223e-11
3.41936e-12
6.55986e-08
4.52603e-08
3.0019e-08
1.35192e-08
3.37671e-09
9.80905e-10
2.80715e-10
5.82459e-11
3.52509e-10
4.52941e-09
1.83801e-08
2.1795e-08
8.86031e-12
1.76586e-11
4.36317e-11
3.86462e-11
1.90049e-11
9.96388e-12
2.63274e-12
5.05637e-08
3.0076e-08
1.43026e-08
3.2604e-09
6.30778e-11
4.16713e-11
7.6754e-12
8.06603e-12
1.37647e-10
1.14546e-09
5.31425e-09
3.77335e-09
8.85687e-12
1.23613e-11
1.83416e-11
1.00357e-11
1.18246e-11
7.10056e-12
2.18303e-12
4.38809e-28
6.81455e-32
2.03366e-09
3.61106e-10
2.17385e-12
5.86444e-13
1.25886e-13
2.60163e-12
3.74912e-11
3.59716e-10
1.67747e-09
2.99118e-09
1.1862e-11
7.06367e-12
6.22321e-12
6.52851e-12
4.82294e-12
5.08414e-12
1.92697e-12
1.26732e-15
1.35809e-16
-1.34805e-18
3.91935e-18
8.43849e-18
3.36797e-16
1.08772e-14
2.57029e-13
5.0792e-12
7.83811e-11
6.47145e-10
2.04098e-09
8.65191e-11
7.95999e-12
2.98582e-12
2.72447e-12
2.36237e-12
2.8587e-12
1.76039e-12
8.87396e-15
6.88526e-16
1.02374e-14
3.87155e-18
1.99823e-18
2.538e-17
7.00443e-16
1.64023e-14
3.55971e-13
7.39098e-12
1.36438e-10
9.43751e-10
1.14419e-10
1.95071e-11
4.06071e-12
1.39367e-12
1.43447e-12
2.08224e-12
1.55049e-12
7.23192e-15
2.81885e-17
1.24012e-17
7.07816e-19
3.00904e-19
2.94507e-18
4.71277e-17
8.23512e-16
1.54346e-14
3.54098e-13
1.26778e-11
2.2699e-10
8.20465e-11
2.7506e-11
9.68395e-12
1.27206e-12
6.71129e-13
1.51797e-12
1.27927e-12
1.84215e-17
5.60816e-18
9.274e-19
1.16678e-19
2.96717e-19
3.68915e-18
4.04529e-17
3.91007e-16
3.38256e-15
2.76133e-14
3.58217e-13
3.02282e-11
3.51188e-11
2.6587e-11
1.43804e-11
2.16977e-12
3.12753e-13
9.39617e-13
1.09182e-12
2.3908e-18
7.69483e-19
1.26893e-19
1.40035e-20
4.6016e-20
7.73799e-19
1.00328e-17
1.12268e-16
1.03472e-15
7.60391e-15
4.0208e-14
5.17145e-13
8.09021e-12
2.21389e-11
1.53962e-11
3.82791e-12
1.68188e-13
4.79155e-13
9.05087e-13
2.27026e-19
6.03602e-20
1.18881e-20
9.96048e-22
1.13502e-21
2.25202e-20
4.48158e-19
7.55411e-18
1.04114e-16
1.16913e-15
9.15821e-15
6.7421e-14
3.66047e-12
1.92726e-11
1.40457e-11
3.97502e-12
1.20183e-13
2.71146e-13
7.29943e-13
1.56638e-20
4.93567e-21
9.48892e-22
9.75018e-23
8.22565e-23
6.73981e-22
1.37546e-20
3.29182e-19
6.72073e-18
1.11723e-16
1.49598e-15
1.54243e-14
1.35965e-12
1.42674e-11
1.0449e-11
3.65389e-12
1.74237e-13
1.5185e-13
5.31737e-13
9.97874e-22
3.70154e-22
6.93659e-23
2.08893e-23
5.2825e-23
4.78764e-22
9.64553e-21
2.40143e-19
5.47293e-18
1.08689e-16
1.88278e-15
2.95109e-14
4.81226e-13
8.2041e-12
6.39569e-12
2.66184e-12
5.3586e-14
4.12499e-14
4.14449e-13
6.4406e-23
2.37441e-23
7.32373e-24
6.74758e-24
2.96616e-23
1.33577e-22
1.05728e-21
2.03133e-20
5.25517e-19
1.29619e-17
2.67959e-16
3.77604e-15
7.12412e-14
3.15867e-12
4.73513e-12
1.79815e-12
5.25301e-14
1.01722e-14
3.452e-13
4.42532e-24
2.16364e-24
1.11314e-24
1.91546e-24
9.33201e-24
3.62526e-23
1.49595e-22
9.44448e-22
1.70495e-20
5.31405e-19
1.6946e-17
3.35885e-16
1.40076e-15
3.07658e-13
2.58807e-12
1.33266e-12
1.98318e-13
1.02758e-14
2.80417e-13
4.94364e-25
2.74991e-25
2.62802e-25
6.84241e-25
3.80556e-24
1.50986e-23
5.79773e-23
1.98684e-22
6.46185e-22
2.65967e-21
3.76388e-20
1.10893e-18
2.03525e-18
3.59505e-15
1.29755e-12
8.25619e-13
2.50338e-13
2.28823e-14
2.21108e-13
8.70996e-26
6.48845e-26
9.5676e-26
3.6716e-25
2.16741e-24
9.81887e-24
4.07481e-23
1.46569e-22
4.76656e-22
1.62459e-21
1.09683e-20
4.68259e-20
1.34968e-19
2.73276e-18
2.34636e-13
4.13866e-13
1.73348e-13
3.01857e-14
1.70425e-13
2.08837e-26
1.82865e-26
4.93977e-26
2.92174e-25
1.86446e-24
9.64669e-24
4.42035e-23
1.71092e-22
5.56878e-22
1.63553e-21
5.49452e-21
3.60426e-20
1.29569e-19
4.12342e-19
1.04003e-14
1.81759e-13
9.33197e-14
1.91226e-14
1.27822e-13
4.90717e-27
6.10754e-27
2.20643e-26
1.47905e-25
1.03112e-24
5.58482e-24
2.61788e-23
1.0237e-22
3.41295e-22
1.037e-21
3.48646e-21
2.00789e-20
8.76168e-20
2.54717e-19
7.16139e-17
6.0488e-14
4.31087e-14
1.1031e-14
9.3185e-14
1.11823e-27
1.93005e-27
1.02881e-26
7.22517e-26
5.88066e-25
3.56393e-24
1.86293e-23
8.2113e-23
3.07418e-22
9.89926e-22
4.23886e-21
3.7779e-20
2.98409e-19
1.62087e-18
8.01923e-18
1.44608e-14
1.47251e-14
6.81602e-15
6.54938e-14
3.19041e-28
1.29527e-27
1.03664e-26
7.85374e-26
6.55665e-25
4.05849e-24
2.21194e-23
1.03759e-22
3.88824e-22
1.27341e-21
3.62222e-21
1.68138e-20
1.17841e-19
7.20372e-19
3.21142e-17
6.06152e-15
6.70507e-15
4.35271e-15
4.35219e-14
7.23171e-29
3.77153e-28
4.41786e-27
4.10091e-26
3.3471e-25
2.35018e-24
1.44204e-23
7.67255e-23
3.24821e-22
1.16598e-21
3.53151e-21
1.42048e-20
6.90671e-20
3.60743e-19
3.69903e-17
1.18951e-15
3.41111e-15
3.06281e-15
3.07185e-14
1.20652e-29
6.97741e-29
9.12844e-28
9.17318e-27
8.54095e-26
7.89514e-25
5.85968e-24
3.6684e-23
1.99106e-22
8.97619e-22
3.17572e-21
1.40875e-20
6.18134e-20
3.01726e-19
4.69034e-18
2.95522e-16
1.60491e-15
2.25105e-15
2.67636e-14
2.26627e-30
1.61833e-29
2.24061e-28
2.56845e-27
2.88868e-26
2.639e-25
2.22236e-24
1.6133e-23
9.04263e-23
4.24836e-22
1.88099e-21
7.03687e-21
2.58684e-20
1.17414e-19
7.05222e-19
9.42486e-18
6.24862e-16
2.08663e-15
2.33558e-14
2.88428e-31
2.20841e-30
3.67742e-29
5.0767e-28
6.45781e-27
7.50876e-26
7.80604e-25
6.79502e-24
4.79865e-23
2.95984e-22
1.265e-21
5.13343e-21
1.96771e-20
5.33329e-20
1.78049e-19
2.49668e-18
4.4618e-16
1.61244e-15
1.7832e-14
4.60155e-32
5.9974e-31
1.12224e-29
1.94877e-28
2.98159e-27
3.97139e-26
4.62138e-25
4.70963e-24
4.07202e-23
2.8981e-22
1.64897e-21
1.05928e-20
5.94674e-20
2.49615e-19
6.90011e-19
4.30611e-18
2.90622e-16
9.81616e-16
1.17575e-14
7.87117e-33
1.42462e-31
2.36683e-30
6.83528e-29
1.16552e-27
1.70798e-26
2.10002e-25
2.17968e-24
1.92308e-23
1.27225e-22
8.50315e-22
5.37736e-21
3.31686e-20
1.83771e-19
9.28589e-19
4.43961e-18
1.40011e-16
3.25357e-16
7.12103e-15
6.82262e-34
1.47538e-32
4.45782e-31
1.11252e-29
2.38078e-28
4.33133e-27
6.71456e-26
8.91104e-25
1.00542e-23
9.27171e-23
6.72314e-22
4.03551e-21
1.9225e-20
7.13256e-20
2.59646e-19
3.19506e-18
7.18709e-17
2.78766e-16
4.56249e-15
6.33442e-35
1.16149e-33
5.97551e-32
1.77745e-30
4.75243e-29
1.09077e-27
2.1168e-26
3.50232e-25
4.90643e-24
5.48038e-23
4.75545e-22
3.34078e-21
1.84191e-20
7.00619e-20
2.51133e-19
1.27766e-18
4.78714e-17
2.70664e-16
2.59716e-15
7.43822e-36
2.43501e-34
9.39822e-33
3.31404e-31
1.04369e-29
2.88529e-28
6.83972e-27
1.36682e-25
2.25456e-24
2.9672e-23
3.01155e-22
2.38961e-21
1.81664e-20
8.185e-20
2.43275e-19
5.40185e-19
9.17755e-18
2.17474e-16
1.36335e-15
5.91178e-37
2.31802e-35
1.14271e-33
4.98031e-32
1.85395e-30
5.91215e-29
1.63426e-27
3.93734e-26
8.05633e-25
1.34398e-23
1.74785e-22
1.73159e-21
1.30021e-20
6.59493e-20
2.64942e-19
8.00131e-19
3.07275e-18
1.25376e-16
8.17574e-16
3.22609e-38
1.22522e-36
7.34043e-35
3.9972e-33
1.90076e-31
7.91688e-30
2.84816e-28
8.44092e-27
2.02217e-25
3.90589e-24
6.06551e-23
7.31522e-22
5.8728e-21
4.2398e-20
2.29445e-19
6.10998e-19
3.01242e-18
8.04919e-17
6.08841e-16
1.72842e-39
4.67892e-38
3.13986e-36
2.06791e-34
1.16294e-32
5.53436e-31
2.21796e-29
7.58743e-28
2.29545e-26
6.03367e-25
1.293e-23
2.05263e-22
2.26028e-21
1.79512e-20
1.12167e-19
5.58085e-19
2.86546e-18
6.31126e-17
4.5081e-16
9.52977e-41
1.49494e-39
9.13041e-38
7.15959e-36
4.89861e-34
2.91316e-32
1.43959e-30
6.05766e-29
2.20706e-27
6.9059e-26
1.78297e-24
3.50596e-23
4.92589e-22
5.09094e-21
4.55061e-20
2.05427e-19
1.70441e-18
3.32607e-17
2.46564e-16
5.09581e-42
5.26147e-41
1.37124e-39
1.23528e-37
1.15935e-35
8.81745e-34
5.1433e-32
2.57111e-30
1.17478e-28
4.62318e-27
1.48966e-25
3.71667e-24
6.85318e-23
9.3831e-22
1.05524e-20
4.8729e-20
2.88369e-19
3.39725e-18
4.18314e-17
)
;

boundaryField
{
    leftWall
    {
        type            zeroGradient;
    }
    rightWall
    {
        type            zeroGradient;
    }
    lowerWall
    {
        type            zeroGradient;
    }
    atmosphere
    {
        type            inletOutlet;
        inletValue      uniform 0;
        value           nonuniform List<scalar> 
46
(
0
0
0
0
0
0
0
0
0
0
0
0
0
0
0
0
0
0
0
0
0
0
0
0
0
0
0
0
0
0
0
1.15935e-35
8.81745e-34
5.1433e-32
2.57111e-30
1.17478e-28
4.62318e-27
1.48966e-25
3.71667e-24
6.85318e-23
9.3831e-22
1.05524e-20
4.8729e-20
2.88369e-19
0
4.18314e-17
)
;
    }
    defaultFaces
    {
        type            empty;
    }
}


// ************************************************************************* //
