/*--------------------------------*- C++ -*----------------------------------*\
| =========                 |                                                 |
| \\      /  F ield         | OpenFOAM: The Open Source CFD Toolbox           |
|  \\    /   O peration     | Version:  2312                                  |
|   \\  /    A nd           | Website:  www.openfoam.com                      |
|    \\/     M anipulation  |                                                 |
\*---------------------------------------------------------------------------*/
FoamFile
{
    version     2.0;
    format      ascii;
    arch        "LSB;label=32;scalar=64";
    class       volVectorField;
    location    "0.45";
    object      U;
}
// * * * * * * * * * * * * * * * * * * * * * * * * * * * * * * * * * * * * * //

dimensions      [0 1 -1 0 0 0 0];

internalField   nonuniform List<vector> 
2268
(
(0.0223498 -0.0101375 0)
(0.051345 -0.010072 0)
(0.0872527 -0.00990492 0)
(0.122364 -0.00983199 0)
(0.156935 -0.00974254 0)
(0.191201 -0.00960702 0)
(0.225062 -0.00942716 0)
(0.258283 -0.00918567 0)
(0.290535 -0.00884645 0)
(0.321332 -0.00835578 0)
(0.34993 -0.00763561 0)
(0.375207 -0.00657498 0)
(0.395522 -0.0050303 0)
(0.408614 -0.00285978 0)
(0.411688 2.93723e-05 0)
(0.401764 0.00358353 0)
(0.376761 0.00745401 0)
(0.337049 0.0109576 0)
(0.285909 0.0134919 0)
(0.228376 0.0150089 0)
(0.170515 0.0159524 0)
(0.102653 0.0185642 0)
(0.0634595 0.0268578 0)
(0.022201 -0.0244233 0)
(0.0513729 -0.0242951 0)
(0.0873855 -0.0240805 0)
(0.122526 -0.024011 0)
(0.157147 -0.0238678 0)
(0.19147 -0.0236059 0)
(0.225397 -0.0232216 0)
(0.258708 -0.0226611 0)
(0.291092 -0.0218239 0)
(0.322083 -0.0205597 0)
(0.350968 -0.0186456 0)
(0.376664 -0.0157554 0)
(0.397556 -0.0114467 0)
(0.411378 -0.00524712 0)
(0.415175 0.00318128 0)
(0.405702 0.0137968 0)
(0.380529 0.0248426 0)
(0.339908 0.0339793 0)
(0.287386 0.0394593 0)
(0.228321 0.0412116 0)
(0.169046 0.0409081 0)
(0.0986732 0.0430475 0)
(0.0574886 0.0511934 0)
(0.021936 -0.0415788 0)
(0.0512381 -0.0413558 0)
(0.0872911 -0.0411669 0)
(0.122411 -0.041063 0)
(0.157039 -0.0408226 0)
(0.191377 -0.0404133 0)
(0.225335 -0.0398105 0)
(0.258719 -0.0389191 0)
(0.29125 -0.0375777 0)
(0.322503 -0.0355452 0)
(0.351831 -0.0324614 0)
(0.378238 -0.0277929 0)
(0.400184 -0.0207986 0)
(0.415396 -0.0107092 0)
(0.42082 0.00301021 0)
(0.412385 0.0213338 0)
(0.386841 0.0406926 0)
(0.344514 0.0567306 0)
(0.289613 0.0663846 0)
(0.228442 0.069522 0)
(0.168296 0.0696313 0)
(0.0976741 0.0737264 0)
(0.0548689 0.0862034 0)
(0.0216268 -0.0579003 0)
(0.0509361 -0.0575277 0)
(0.0869142 -0.0573906 0)
(0.121894 -0.0571996 0)
(0.15639 -0.0568098 0)
(0.190589 -0.0562259 0)
(0.224415 -0.0553951 0)
(0.257703 -0.054178 0)
(0.290212 -0.052355 0)
(0.321585 -0.0495979 0)
(0.351278 -0.0454091 0)
(0.378455 -0.0390282 0)
(0.401733 -0.0293066 0)
(0.418936 -0.0149731 0)
(0.427273 0.00481456 0)
(0.421037 0.030741 0)
(0.395306 0.0581636 0)
(0.350514 0.0804222 0)
(0.292058 0.0936125 0)
(0.227988 0.0974693 0)
(0.167305 0.0977333 0)
(0.0979768 0.103885 0)
(0.0543197 0.120815 0)
(0.0211784 -0.0764869 0)
(0.050211 -0.0758623 0)
(0.0857895 -0.0758246 0)
(0.120281 -0.0755411 0)
(0.154259 -0.0750256 0)
(0.187895 -0.0743306 0)
(0.221129 -0.0733733 0)
(0.253827 -0.0719778 0)
(0.285796 -0.0698926 0)
(0.316766 -0.0667539 0)
(0.346341 -0.0620193 0)
(0.373936 -0.0548485 0)
(0.398496 -0.0438171 0)
(0.418135 -0.0268409 0)
(0.430379 -0.000299499 0)
(0.427284 0.0358362 0)
(0.401613 0.0774387 0)
(0.354138 0.110243 0)
(0.291854 0.127264 0)
(0.224986 0.128993 0)
(0.164946 0.126661 0)
(0.0987691 0.133611 0)
(0.0553079 0.155143 0)
(0.0205446 -0.0938592 0)
(0.0487848 -0.0930764 0)
(0.0832282 -0.0930556 0)
(0.11656 -0.092503 0)
(0.149358 -0.0916328 0)
(0.181725 -0.0905408 0)
(0.213604 -0.0891302 0)
(0.244848 -0.0872178 0)
(0.275258 -0.0845417 0)
(0.304559 -0.0807124 0)
(0.332412 -0.0751329 0)
(0.358457 -0.0668622 0)
(0.382216 -0.0542114 0)
(0.403515 -0.034864 0)
(0.419227 -0.00405166 0)
(0.421246 0.033736 0)
(0.399246 0.0777652 0)
(0.351869 0.122612 0)
(0.283524 0.151741 0)
(0.213529 0.15614 0)
(0.157022 0.15262 0)
(0.0980951 0.161413 0)
(0.0573717 0.189874 0)
(0.0165342 -0.103188 0)
(0.0397494 -0.102218 0)
(0.0682592 -0.102528 0)
(0.0943772 -0.101658 0)
(0.118918 -0.100385 0)
(0.141564 -0.0988701 0)
(0.162059 -0.0969283 0)
(0.180369 -0.0943482 0)
(0.196612 -0.0908095 0)
(0.211066 -0.0858387 0)
(0.224088 -0.0787325 0)
(0.235941 -0.0684206 0)
(0.246926 -0.053158 0)
(0.257601 -0.0315094 0)
(0.265038 -0.00109468 0)
(0.275165 0.0585372 0)
(0.313108 0.11815 0)
(0.296498 0.156519 0)
(0.244908 0.182721 0)
(0.179484 0.182491 0)
(0.13514 0.174388 0)
(0.092624 0.185299 0)
(0.0600008 0.224953 0)
(0.0119145 -0.115918 0)
(0.0270812 -0.114778 0)
(0.0464986 -0.115084 0)
(0.0637271 -0.113718 0)
(0.0800725 -0.111771 0)
(0.0952437 -0.10948 0)
(0.109103 -0.106736 0)
(0.121772 -0.103441 0)
(0.133504 -0.0993834 0)
(0.144588 -0.0941782 0)
(0.155215 -0.0871811 0)
(0.165224 -0.0773037 0)
(0.17373 -0.0630793 0)
(0.179005 -0.0434752 0)
(0.17866 -0.0185076 0)
(0.178057 0.0233263 0)
(0.200774 0.108747 0)
(0.161851 0.198189 0)
(0.179263 0.207083 0)
(0.130937 0.204039 0)
(0.100397 0.187845 0)
(0.0834717 0.202888 0)
(0.0640492 0.266162 0)
(-0.207461 0.0655694 0)
(-0.276131 0.026498 0)
(-0.376558 0.0119991 0)
(-0.43795 0.0104217 0)
(-0.504539 0.010581 0)
(-0.579724 0.00872809 0)
(-0.657846 0.000600351 0)
(-0.714276 -0.0161339 0)
(-0.716966 -0.0433918 0)
(-0.657653 -0.081218 0)
(-0.509139 -0.138346 0)
(-0.0110594 -0.182238 0)
(0.500634 -0.208349 0)
(0.874925 -0.160734 0)
(1.22076 -0.107203 0)
(1.54109 -0.0122615 0)
(1.47027 0.091389 0)
(0.951544 0.153631 0)
(0.311894 0.156822 0)
(-0.147718 0.121108 0)
(-0.166072 0.0677285 0)
(-0.241806 0.0408641 0)
(-0.273497 0.0404949 0)
(-0.306857 0.0445771 0)
(-0.342657 0.049808 0)
(-0.382341 0.0488327 0)
(-0.419804 0.0306024 0)
(-0.450592 -0.0078958 0)
(-0.482723 -0.0498004 0)
(-0.312701 -0.121292 0)
(0.460186 -0.305609 0)
(0.716564 -0.300345 0)
(0.901663 -0.232471 0)
(1.04928 -0.169408 0)
(1.15748 -0.0695507 0)
(1.1997 0.188521 0)
(0.820649 0.331021 0)
(0.298723 0.367589 0)
(-0.0965916 0.16495 0)
(-0.0604747 0.0894616 0)
(-0.106161 0.0456328 0)
(-0.106654 0.0423657 0)
(-0.116548 0.0457425 0)
(-0.134959 0.0510297 0)
(-0.173026 0.0387827 0)
(-0.189419 0.0239108 0)
(-0.18616 -0.0343366 0)
(-0.0913593 -0.212792 0)
(0.536843 -0.373823 0)
(0.853329 -0.513174 0)
(0.928777 -0.392263 0)
(1.01146 -0.277928 0)
(1.0709 -0.185641 0)
(1.10183 -0.0605073 0)
(1.05675 0.273973 0)
(0.721279 0.512699 0)
(0.274799 0.579183 0)
(-0.0531628 0.184135 0)
(0.0452394 0.090669 0)
(0.029412 0.044582 0)
(0.0595314 0.0432847 0)
(0.0619788 0.0545602 0)
(0.0297067 0.0623054 0)
(0.0630412 0.0465063 0)
(0.386381 0.00228305 0)
(0.763881 -0.075172 0)
(1.0129 -0.210897 0)
(1.37241 -0.438945 0)
(1.1123 -0.52119 0)
(1.09488 -0.407596 0)
(1.08826 -0.294155 0)
(1.07959 -0.190866 0)
(1.05911 -0.0407868 0)
(0.953859 0.329897 0)
(0.615202 0.673025 0)
(0.24127 0.767994 0)
(-0.0128514 0.171541 0)
(0.147139 0.0698827 0)
(0.172903 0.033258 0)
(0.220075 0.0353878 0)
(0.236022 0.0468175 0)
(0.386055 0.0162347 0)
(0.813971 -0.0996123 0)
(1.15688 -0.233848 0)
(1.51375 -0.272872 0)
(1.82794 -0.250999 0)
(1.35396 -0.428861 0)
(1.25918 -0.441389 0)
(1.18977 -0.388483 0)
(1.13334 -0.292776 0)
(1.07075 -0.184755 0)
(0.997366 -0.00642138 0)
(0.810799 0.445861 0)
(0.485949 0.821522 0)
(0.194806 0.931658 0)
(0.0336735 0.124779 0)
(0.241379 0.0312477 0)
(0.321606 0.0105758 0)
(0.378199 0.0107553 0)
(0.522651 -0.0298816 0)
(0.744476 -0.125092 0)
(0.946326 -0.248889 0)
(1.02565 -0.300288 0)
(1.10065 -0.327774 0)
(1.27772 -0.367686 0)
(1.32311 -0.370413 0)
(1.28763 -0.395797 0)
(1.21638 -0.371921 0)
(1.15547 -0.267987 0)
(1.03297 -0.126938 0)
(0.860162 0.106523 0)
(0.650145 0.547266 0)
(0.355165 0.938462 0)
(0.143861 1.05456 0)
(0.0957971 0.0686577 0)
(0.336198 -0.028916 0)
(0.466073 -0.0404757 0)
(0.587367 -0.049658 0)
(0.728221 -0.108388 0)
(0.840517 -0.184602 0)
(0.90628 -0.268265 0)
(0.955522 -0.299683 0)
(1.04827 -0.369022 0)
(1.19031 -0.402529 0)
(1.25522 -0.37827 0)
(1.2751 -0.374207 0)
(1.20377 -0.328085 0)
(1.03094 -0.18255 0)
(0.858957 -0.043048 0)
(0.649896 0.214443 0)
(0.463987 0.681673 0)
(0.240393 1.03062 0)
(0.0984456 1.14137 0)
(0.201523 -0.111481 0)
(0.390989 -0.118337 0)
(0.560393 -0.106083 0)
(0.712698 -0.09199 0)
(0.818574 -0.126661 0)
(0.876347 -0.188976 0)
(0.907095 -0.282881 0)
(0.955537 -0.324268 0)
(1.02736 -0.425792 0)
(1.11033 -0.442542 0)
(1.1783 -0.405616 0)
(1.24404 -0.326234 0)
(1.06335 -0.231683 0)
(0.857979 -0.116336 0)
(0.671885 0.0285484 0)
(0.500378 0.299601 0)
(0.328829 0.752879 0)
(0.161256 1.0908 0)
(0.06971 1.19098 0)
(0.0101427 -0.126517 0)
(0.0227228 -0.125461 0)
(0.039448 -0.125085 0)
(0.0538791 -0.123222 0)
(0.0674209 -0.12061 0)
(0.0799692 -0.117559 0)
(0.0914662 -0.114115 0)
(0.102141 -0.110292 0)
(0.112436 -0.105959 0)
(0.122876 -0.100693 0)
(0.133955 -0.0936725 0)
(0.145762 -0.0832758 0)
(0.157312 -0.067149 0)
(0.16652 -0.0429622 0)
(0.169911 -0.00881699 0)
(0.163052 0.0364096 0)
(0.155524 0.101435 0)
(0.153883 0.21521 0)
(0.0538306 0.258505 0)
(0.066483 0.220339 0)
(0.0601011 0.197773 0)
(0.0950339 0.193258 0)
(0.160289 0.248888 0)
(0.00891407 -0.143791 0)
(0.0196936 -0.14303 0)
(0.0344108 -0.1414 0)
(0.0467641 -0.138474 0)
(0.0581122 -0.13468 0)
(0.0684433 -0.130434 0)
(0.0778441 -0.126042 0)
(0.0867693 -0.121789 0)
(0.0960911 -0.117802 0)
(0.106916 -0.113717 0)
(0.120549 -0.108532 0)
(0.137714 -0.0995002 0)
(0.157058 -0.0825485 0)
(0.175308 -0.0544434 0)
(0.188928 -0.0138051 0)
(0.195101 0.0398143 0)
(0.195241 0.109682 0)
(0.207212 0.209935 0)
(0.204979 0.322044 0)
(0.116019 0.234065 0)
(0.0671655 0.172525 0)
(0.0998538 0.153295 0)
(0.166235 0.146486 0)
(0.00964526 -0.155858 0)
(0.0214066 -0.155036 0)
(0.0368264 -0.152463 0)
(0.0498617 -0.148484 0)
(0.0615853 -0.143634 0)
(0.0719395 -0.13851 0)
(0.0810024 -0.133705 0)
(0.0892801 -0.129869 0)
(0.0979778 -0.12764 0)
(0.108827 -0.126902 0)
(0.124287 -0.12659 0)
(0.146108 -0.122176 0)
(0.172738 -0.106813 0)
(0.199803 -0.0762412 0)
(0.22385 -0.0298034 0)
(0.242742 0.0300152 0)
(0.256332 0.101702 0)
(0.276221 0.191098 0)
(0.313755 0.298206 0)
(0.336881 0.326337 0)
(0.295903 0.205254 0)
(0.166729 0.0955241 0)
(0.193024 0.0824351 0)
(0.0105491 -0.173245 0)
(0.0236069 -0.17174 0)
(0.0400555 -0.167764 0)
(0.0538647 -0.161817 0)
(0.0658207 -0.154664 0)
(0.075687 -0.147208 0)
(0.0833991 -0.14059 0)
(0.0893326 -0.136204 0)
(0.0951014 -0.13568 0)
(0.103267 -0.139746 0)
(0.117909 -0.14748 0)
(0.141578 -0.151192 0)
(0.172672 -0.139749 0)
(0.205295 -0.10814 0)
(0.235968 -0.0563226 0)
(0.26595 0.0121848 0)
(0.29213 0.0851739 0)
(0.322628 0.161051 0)
(0.374063 0.243108 0)
(0.440463 0.292011 0)
(0.495488 0.270793 0)
(0.519979 0.188296 0)
(0.52096 0.048283 0)
(0.0116767 -0.202672 0)
(0.0263294 -0.200081 0)
(0.0441498 -0.194573 0)
(0.059007 -0.186094 0)
(0.0712184 -0.175308 0)
(0.079834 -0.162964 0)
(0.0840018 -0.150734 0)
(0.0836871 -0.141964 0)
(0.0825791 -0.140556 0)
(0.0836013 -0.148315 0)
(0.0923391 -0.16549 0)
(0.110655 -0.18017 0)
(0.138245 -0.175504 0)
(0.168803 -0.14694 0)
(0.20031 -0.0970696 0)
(0.233526 -0.0323087 0)
(0.273758 0.0379494 0)
(0.314767 0.104222 0)
(0.370155 0.166252 0)
(0.447422 0.204009 0)
(0.53405 0.193885 0)
(0.615822 0.136714 0)
(0.695657 0.0471932 0)
(0.0122337 -0.219717 0)
(0.0276067 -0.216874 0)
(0.0464655 -0.211434 0)
(0.0628046 -0.203171 0)
(0.0765087 -0.19269 0)
(0.0852012 -0.180635 0)
(0.0843843 -0.167723 0)
(0.068491 -0.155095 0)
(0.055328 -0.148424 0)
(0.0468331 -0.153316 0)
(0.04073 -0.173055 0)
(0.0375838 -0.195497 0)
(0.044233 -0.195477 0)
(0.053321 -0.167398 0)
(0.060643 -0.1138 0)
(0.0818038 -0.0521772 0)
(0.126768 0.00726117 0)
(0.213977 0.0680374 0)
(0.296951 0.113115 0)
(0.384547 0.129234 0)
(0.476907 0.107536 0)
(0.563283 0.0542218 0)
(0.644892 -0.0317302 0)
(0.00131164 -0.205816 0)
(-0.0150293 -0.201606 0)
(-0.0241293 -0.200618 0)
(-0.0564545 -0.190291 0)
(-0.122344 -0.153294 0)
(-0.270163 -0.0930157 0)
(-0.441983 -0.0568162 0)
(-0.316185 -0.11235 0)
(-0.151758 -0.131955 0)
(-0.0990941 -0.135998 0)
(-0.101906 -0.157459 0)
(-0.126976 -0.190689 0)
(-0.136073 -0.187531 0)
(-0.145823 -0.149251 0)
(-0.148895 -0.107089 0)
(-0.133569 -0.0809766 0)
(-0.0951341 -0.0656084 0)
(-0.0307294 -0.0478615 0)
(0.0843291 -0.00983207 0)
(0.206414 0.0119424 0)
(0.325209 -0.00161494 0)
(0.421435 -0.0452509 0)
(0.507418 -0.105868 0)
(-0.0245192 -0.189431 0)
(-0.0852699 -0.172504 0)
(-0.180257 -0.135494 0)
(-0.376149 -0.0594139 0)
(-0.660618 0.0201457 0)
(-0.900797 0.00230816 0)
(-0.96251 -0.115923 0)
(-0.742978 -0.333153 0)
(-0.624217 -0.356395 0)
(-0.513363 -0.250697 0)
(-0.36681 -0.179357 0)
(-0.250546 -0.182177 0)
(-0.205999 -0.167348 0)
(-0.206754 -0.143194 0)
(-0.217256 -0.124652 0)
(-0.203266 -0.118045 0)
(-0.175146 -0.116891 0)
(-0.134327 -0.119029 0)
(-0.0840532 -0.123975 0)
(-0.0111618 -0.130531 0)
(0.0823389 -0.138428 0)
(0.172798 -0.157063 0)
(0.271837 -0.196113 0)
(-0.0327041 -0.121646 0)
(-0.0983873 -0.0739602 0)
(-0.188493 0.0390202 0)
(-0.326188 0.19339 0)
(-0.487731 0.252568 0)
(-0.557972 0.157527 0)
(-0.42218 -0.0727459 0)
(-0.379901 -0.387906 0)
(-0.403956 -0.401395 0)
(-0.313909 -0.336361 0)
(-0.203846 -0.293552 0)
(0.00720908 -0.28755 0)
(-0.162343 -0.191159 0)
(-0.319354 -0.124203 0)
(-0.297714 -0.127603 0)
(-0.266786 -0.131117 0)
(-0.22122 -0.141496 0)
(-0.166274 -0.147955 0)
(-0.110504 -0.150933 0)
(-0.0566835 -0.160117 0)
(0.0104573 -0.181982 0)
(0.0782323 -0.208733 0)
(0.16514 -0.244881 0)
(-0.0232371 -0.063988 0)
(-0.0593581 -0.0116418 0)
(-0.0785799 0.104604 0)
(-0.0930495 0.239666 0)
(-0.151972 0.28529 0)
(-0.16863 0.00659196 0)
(-0.120874 -0.239355 0)
(-0.0944503 -0.403255 0)
(-0.0846257 -0.479625 0)
(-0.0815192 -0.522587 0)
(-0.0737593 -0.529228 0)
(-0.0428711 -0.314851 0)
(0.090403 -0.0534294 0)
(0.10642 -0.0141555 0)
(0.133293 -0.172666 0)
(0.144173 -0.17116 0)
(0.167267 -0.190177 0)
(0.184197 -0.199973 0)
(0.196437 -0.20186 0)
(0.209492 -0.218945 0)
(0.228568 -0.25027 0)
(0.261393 -0.302075 0)
(0.322211 -0.355472 0)
(-0.0102986 -0.0348199 0)
(-0.0168382 -0.00224578 0)
(-0.00142331 0.0753484 0)
(0.0667902 0.198752 0)
(0.138449 0.283709 0)
(0.197447 0.179294 0)
(0.158233 -0.192732 0)
(0.145174 -0.374103 0)
(0.0787705 -0.448673 0)
(0.0448108 -0.453793 0)
(0.0210529 -0.431383 0)
(0.00247826 -0.365762 0)
(0.0476441 -0.206602 0)
(0.168227 -0.121093 0)
(0.259637 -0.16823 0)
(0.321035 -0.198159 0)
(0.376855 -0.212031 0)
(0.432626 -0.217013 0)
(0.488472 -0.219639 0)
(0.540664 -0.230216 0)
(0.583261 -0.258146 0)
(0.612575 -0.305909 0)
(0.629786 -0.370818 0)
(-0.000314992 -0.0302256 0)
(0.0107174 -0.0156853 0)
(0.0422853 0.0275552 0)
(0.116731 0.0978016 0)
(0.235447 0.152947 0)
(0.347072 0.0919414 0)
(0.403309 -0.126807 0)
(0.342093 -0.274981 0)
(0.249041 -0.357267 0)
(0.170583 -0.390663 0)
(0.119781 -0.389978 0)
(0.0886221 -0.362924 0)
(0.0963909 -0.289954 0)
(0.181514 -0.260994 0)
(0.25355 -0.269762 0)
(0.309387 -0.28033 0)
(0.358329 -0.285123 0)
(0.406325 -0.286444 0)
(0.453492 -0.285607 0)
(0.497397 -0.287244 0)
(0.533156 -0.298015 0)
(0.557987 -0.324019 0)
(0.570611 -0.359891 0)
(0.00502882 -0.0402296 0)
(0.0235247 -0.0384605 0)
(0.053934 -0.0178772 0)
(0.106285 0.00283344 0)
(0.191943 0.00655133 0)
(0.286497 -0.0573839 0)
(0.332171 -0.169066 0)
(0.31925 -0.25134 0)
(0.270475 -0.30295 0)
(0.214193 -0.334005 0)
(0.169077 -0.347345 0)
(0.140609 -0.344141 0)
(0.140519 -0.318773 0)
(0.177418 -0.302648 0)
(0.221363 -0.306573 0)
(0.261045 -0.31675 0)
(0.296877 -0.323847 0)
(0.330254 -0.325776 0)
(0.360078 -0.323456 0)
(0.38508 -0.320212 0)
(0.401113 -0.324182 0)
(0.408342 -0.344225 0)
(0.400929 -0.372127 0)
(0.00762642 -0.0565603 0)
(0.0287587 -0.0630417 0)
(0.0571183 -0.0541536 0)
(0.0969824 -0.0483413 0)
(0.150037 -0.0565385 0)
(0.204224 -0.0910755 0)
(0.235055 -0.155232 0)
(0.2357 -0.221026 0)
(0.216058 -0.269835 0)
(0.188903 -0.301118 0)
(0.163997 -0.319954 0)
(0.146609 -0.329803 0)
(0.143824 -0.32915 0)
(0.159408 -0.330676 0)
(0.182959 -0.338706 0)
(0.206494 -0.347607 0)
(0.227474 -0.352144 0)
(0.245071 -0.350237 0)
(0.257805 -0.342335 0)
(0.267317 -0.330312 0)
(0.268839 -0.325687 0)
(0.263868 -0.340097 0)
(0.246254 -0.35943 0)
(0.00834227 -0.0751176 0)
(0.0289018 -0.0868549 0)
(0.0534452 -0.0849038 0)
(0.0837458 -0.0870398 0)
(0.118419 -0.0994488 0)
(0.15141 -0.128225 0)
(0.173007 -0.171238 0)
(0.178399 -0.215848 0)
(0.170468 -0.253844 0)
(0.155859 -0.283116 0)
(0.140917 -0.304979 0)
(0.129575 -0.321475 0)
(0.12533 -0.332739 0)
(0.12991 -0.343231 0)
(0.138957 -0.353861 0)
(0.147698 -0.361539 0)
(0.15376 -0.363222 0)
(0.155752 -0.357383 0)
(0.153012 -0.344923 0)
(0.150095 -0.327196 0)
(0.140702 -0.320084 0)
(0.127878 -0.327183 0)
(0.0887001 -0.329805 0)
(0.00795711 -0.0931677 0)
(0.026354 -0.108034 0)
(0.0466541 -0.109639 0)
(0.0696412 -0.115119 0)
(0.0936348 -0.12796 0)
(0.115421 -0.150136 0)
(0.130445 -0.180377 0)
(0.135963 -0.213585 0)
(0.132841 -0.244825 0)
(0.12433 -0.271839 0)
(0.113995 -0.294605 0)
(0.104548 -0.314148 0)
(0.0979229 -0.330713 0)
(0.0946836 -0.345114 0)
(0.0924348 -0.356236 0)
(0.0884186 -0.361616 0)
(0.0811832 -0.359572 0)
(0.0695154 -0.349396 0)
(0.054362 -0.332948 0)
(0.0400579 -0.312409 0)
(0.0206963 -0.301748 0)
(-0.0140225 -0.289563 0)
(-0.0689996 -0.262319 0)
(0.00701946 -0.109316 0)
(0.0226739 -0.125923 0)
(0.0390028 -0.129105 0)
(0.0564487 -0.135574 0)
(0.0735494 -0.147391 0)
(0.0884951 -0.165204 0)
(0.0989107 -0.188203 0)
(0.103257 -0.213915 0)
(0.101691 -0.239603 0)
(0.0956833 -0.26366 0)
(0.0870724 -0.285605 0)
(0.0775233 -0.305651 0)
(0.068042 -0.323548 0)
(0.0585515 -0.338312 0)
(0.0475195 -0.34784 0)
(0.0336209 -0.349899 0)
(0.0164672 -0.343784 0)
(-0.00469148 -0.329538 0)
(-0.0273279 -0.309813 0)
(-0.0500822 -0.287987 0)
(-0.078753 -0.267193 0)
(-0.112511 -0.242955 0)
(-0.141387 -0.220395 0)
(0.00588938 -0.123018 0)
(0.0187438 -0.140503 0)
(0.0315729 -0.144193 0)
(0.0447484 -0.150593 0)
(0.0570471 -0.161004 0)
(0.0674078 -0.1756 0)
(0.074443 -0.19381 0)
(0.0772238 -0.214317 0)
(0.0756445 -0.235572 0)
(0.0702708 -0.256477 0)
(0.0619403 -0.276461 0)
(0.0515255 -0.295244 0)
(0.0394145 -0.312023 0)
(0.0252743 -0.324938 0)
(0.00829159 -0.331628 0)
(-0.0118288 -0.330145 0)
(-0.0340971 -0.320632 0)
(-0.057714 -0.304806 0)
(-0.0812707 -0.284848 0)
(-0.10419 -0.263328 0)
(-0.126283 -0.242636 0)
(-0.146033 -0.223 0)
(-0.160599 -0.20444 0)
(0.00475239 -0.134202 0)
(0.0149977 -0.152051 0)
(0.0248296 -0.155701 0)
(0.0346503 -0.161579 0)
(0.0434146 -0.170551 0)
(0.0504758 -0.182615 0)
(0.0549247 -0.197344 0)
(0.0561412 -0.213966 0)
(0.0539094 -0.231534 0)
(0.0483481 -0.249291 0)
(0.0397524 -0.266667 0)
(0.0284555 -0.283101 0)
(0.014517 -0.297421 0)
(-0.00248415 -0.307569 0)
(-0.0219989 -0.311266 0)
(-0.0435531 -0.307813 0)
(-0.0659935 -0.297609 0)
(-0.0880497 -0.282174 0)
(-0.108587 -0.263734 0)
(-0.127017 -0.244585 0)
(-0.143173 -0.226304 0)
(-0.156633 -0.20945 0)
(-0.166277 -0.194377 0)
(0.00370073 -0.143032 0)
(0.0116283 -0.160933 0)
(0.018937 -0.164288 0)
(0.026086 -0.169476 0)
(0.0321519 -0.177095 0)
(0.0367307 -0.187078 0)
(0.0391633 -0.199087 0)
(0.0389975 -0.212618 0)
(0.0359781 -0.22704 0)
(0.0300171 -0.24179 0)
(0.0211425 -0.256322 0)
(0.00937642 -0.269957 0)
(-0.00533867 -0.281374 0)
(-0.0226865 -0.288726 0)
(-0.0422253 -0.290635 0)
(-0.0628314 -0.286384 0)
(-0.0832951 -0.276544 0)
(-0.102507 -0.262583 0)
(-0.119689 -0.246394 0)
(-0.134552 -0.229751 0)
(-0.147165 -0.213833 0)
(-0.157525 -0.199202 0)
(-0.16508 -0.186332 0)
(0.00277194 -0.149769 0)
(0.00869966 -0.167538 0)
(0.0139117 -0.170495 0)
(0.0189218 -0.174959 0)
(0.0228914 -0.181349 0)
(0.0255644 -0.189578 0)
(0.026431 -0.199366 0)
(0.0251391 -0.210346 0)
(0.0214431 -0.222061 0)
(0.0151791 -0.234052 0)
(0.00623088 -0.245831 0)
(-0.0054193 -0.256615 0)
(-0.0196787 -0.265313 0)
(-0.0362834 -0.270627 0)
(-0.0544381 -0.271306 0)
(-0.0730805 -0.266934 0)
(-0.0911332 -0.258038 0)
(-0.107716 -0.245842 0)
(-0.122295 -0.231857 0)
(-0.134744 -0.217451 0)
(-0.145253 -0.203566 0)
(-0.153971 -0.190761 0)
(-0.160542 -0.179535 0)
(0.00197709 -0.154706 0)
(0.00621735 -0.172233 0)
(0.00971035 -0.174775 0)
(0.013008 -0.178536 0)
(0.0153405 -0.183838 0)
(0.0165476 -0.190566 0)
(0.0162202 -0.198505 0)
(0.0140731 -0.207343 0)
(0.00989286 -0.216739 0)
(0.00348799 -0.226306 0)
(-0.00522924 -0.235529 0)
(-0.0162888 -0.243828 0)
(-0.0296026 -0.250352 0)
(-0.0447662 -0.254009 0)
(-0.0610455 -0.253902 0)
(-0.0775217 -0.249721 0)
(-0.0933162 -0.241888 0)
(-0.107751 -0.231373 0)
(-0.120432 -0.219346 0)
(-0.131289 -0.206844 0)
(-0.14054 -0.194613 0)
(-0.14837 -0.183179 0)
(-0.154464 -0.173076 0)
(0.00131264 -0.15813 0)
(0.00415308 -0.175356 0)
(0.006259 -0.177502 0)
(0.00819046 -0.180619 0)
(0.0092519 -0.18496 0)
(0.00933675 -0.190407 0)
(0.00811841 -0.196782 0)
(0.00536284 -0.203826 0)
(0.000873214 -0.211248 0)
(-0.00547259 -0.218692 0)
(-0.0137797 -0.225791 0)
(-0.0240544 -0.232045 0)
(-0.0361554 -0.236768 0)
(-0.0497032 -0.239158 0)
(-0.0640674 -0.23853 0)
(-0.0784986 -0.234622 0)
(-0.0923127 -0.227743 0)
(-0.105005 -0.218644 0)
(-0.116283 -0.208236 0)
(-0.12609 -0.197309 0)
(-0.134611 -0.186435 0)
(-0.141974 -0.176068 0)
(-0.147847 -0.166764 0)
(0.000768714 -0.160307 0)
(0.00246834 -0.177207 0)
(0.0034684 -0.178992 0)
(0.0043239 -0.181538 0)
(0.0044056 -0.185034 0)
(0.00364755 -0.189391 0)
(0.00177233 -0.194438 0)
(-0.0013977 -0.199967 0)
(-0.00601518 -0.205716 0)
(-0.0121957 -0.211423 0)
(-0.0200007 -0.216759 0)
(-0.0294135 -0.221325 0)
(-0.0402912 -0.224615 0)
(-0.0523031 -0.226031 0)
(-0.0649297 -0.22504 0)
(-0.0775698 -0.221397 0)
(-0.0896949 -0.215293 0)
(-0.100942 -0.207301 0)
(-0.111112 -0.198148 0)
(-0.12017 -0.188464 0)
(-0.128248 -0.178685 0)
(-0.135376 -0.169171 0)
(-0.141146 -0.160465 0)
(0.000328662 -0.161473 0)
(0.00111654 -0.178045 0)
(0.00125031 -0.179508 0)
(0.00126868 -0.181551 0)
(0.000608195 -0.184319 0)
(-0.00077912 -0.18774 0)
(-0.00311004 -0.191666 0)
(-0.00653191 -0.195919 0)
(-0.0111678 -0.200292 0)
(-0.0171016 -0.204553 0)
(-0.0243711 -0.208437 0)
(-0.0329476 -0.211638 0)
(-0.0427022 -0.213783 0)
(-0.0533624 -0.214434 0)
(-0.0645093 -0.213175 0)
(-0.0756569 -0.209761 0)
(-0.0863831 -0.20427 0)
(-0.0964203 -0.197113 0)
(-0.105654 -0.188883 0)
(-0.114092 -0.180125 0)
(-0.121843 -0.171196 0)
(-0.128834 -0.162367 0)
(-0.134563 -0.15413 0)
(-2.52707e-05 -0.161838 0)
(5.12728e-05 -0.178086 0)
(-0.000474511 -0.179281 0)
(-0.00110466 -0.180874 0)
(-0.00230975 -0.183018 0)
(-0.00414354 -0.185641 0)
(-0.00677866 -0.188622 0)
(-0.0103314 -0.191812 0)
(-0.0148984 -0.195036 0)
(-0.0205411 -0.198102 0)
(-0.027281 -0.200798 0)
(-0.0350862 -0.20289 0)
(-0.0438488 -0.204107 0)
(-0.0533546 -0.204135 0)
(-0.0632738 -0.202653 0)
(-0.0732105 -0.199424 0)
(-0.082809 -0.194423 0)
(-0.0918492 -0.187908 0)
(-0.100268 -0.180348 0)
(-0.108132 -0.172241 0)
(-0.115563 -0.163928 0)
(-0.122425 -0.155626 0)
(-0.128113 -0.14776 0)
(-0.00030191 -0.161583 0)
(-0.000774272 -0.177519 0)
(-0.00178108 -0.178491 0)
(-0.00289059 -0.179689 0)
(-0.00448967 -0.181293 0)
(-0.00662773 -0.18324 0)
(-0.009445 -0.185426 0)
(-0.0130342 -0.187725 0)
(-0.0174709 -0.189994 0)
(-0.0228001 -0.192074 0)
(-0.0290334 -0.193795 0)
(-0.0361404 -0.194978 0)
(-0.0440355 -0.195428 0)
(-0.0525566 -0.194925 0)
(-0.0614524 -0.193231 0)
(-0.0704046 -0.190131 0)
(-0.0791025 -0.185528 0)
(-0.0873378 -0.179531 0)
(-0.0950608 -0.172477 0)
(-0.102377 -0.164815 0)
(-0.109457 -0.156906 0)
(-0.116149 -0.148969 0)
(-0.121776 -0.141372 0)
(-0.000500414 -0.160857 0)
(-0.00138491 -0.176507 0)
(-0.00273733 -0.177281 0)
(-0.00418601 -0.178139 0)
(-0.0060545 -0.179283 0)
(-0.00838258 -0.180656 0)
(-0.0112862 -0.182171 0)
(-0.0148394 -0.183724 0)
(-0.019102 -0.185196 0)
(-0.0241076 -0.186458 0)
(-0.0298622 -0.187374 0)
(-0.0363394 -0.187805 0)
(-0.0434729 -0.18761 0)
(-0.0511442 -0.186639 0)
(-0.0591686 -0.184723 0)
(-0.0672984 -0.181687 0)
(-0.0752649 -0.177394 0)
(-0.0828573 -0.171832 0)
(-0.0900033 -0.165194 0)
(-0.0968163 -0.157848 0)
(-0.103513 -0.150176 0)
(-0.10998 -0.142445 0)
(-0.115499 -0.135003 0)
(-0.000631269 -0.159787 0)
(-0.00181126 -0.17518 0)
(-0.00339916 -0.17578 0)
(-0.00507403 -0.176343 0)
(-0.00711085 -0.177094 0)
(-0.00953747 -0.17798 0)
(-0.0124519 -0.17893 0)
(-0.015913 -0.179856 0)
(-0.0199693 -0.180663 0)
(-0.024647 -0.181243 0)
(-0.0299495 -0.181489 0)
(-0.0358552 -0.181292 0)
(-0.0423137 -0.180548 0)
(-0.0492399 -0.179154 0)
(-0.056503 -0.177 0)
(-0.0639191 -0.173956 0)
(-0.0712656 -0.169881 0)
(-0.0783324 -0.164682 0)
(-0.0850102 -0.15841 0)
(-0.0913798 -0.151318 0)
(-0.0976897 -0.143776 0)
(-0.103881 -0.136112 0)
(-0.109248 -0.128702 0)
(-0.000701885 -0.15849 0)
(-0.00208005 -0.173643 0)
(-0.0038165 -0.174089 0)
(-0.0056267 -0.174398 0)
(-0.00775158 -0.174814 0)
(-0.0102041 -0.175287 0)
(-0.0130698 -0.175759 0)
(-0.0163951 -0.17616 0)
(-0.0202205 -0.176407 0)
(-0.0245675 -0.176416 0)
(-0.0294397 -0.1761 0)
(-0.0348203 -0.175372 0)
(-0.040672 -0.174156 0)
(-0.0469341 -0.172379 0)
(-0.0535165 -0.169973 0)
(-0.0602902 -0.166851 0)
(-0.0670821 -0.162899 0)
(-0.0736973 -0.157985 0)
(-0.0799899 -0.152045 0)
(-0.0859868 -0.145191 0)
(-0.091922 -0.137725 0)
(-0.097806 -0.130024 0)
(-0.102979 -0.122529 0)
(-0.000717017 -0.157066 0)
(-0.00221328 -0.171977 0)
(-0.00403371 -0.172288 0)
(-0.00590739 -0.172378 0)
(-0.00805859 -0.172509 0)
(-0.0104803 -0.172634 0)
(-0.0132512 -0.172706 0)
(-0.0164064 -0.172663 0)
(-0.0199813 -0.172441 0)
(-0.0239948 -0.171969 0)
(-0.0284519 -0.171177 0)
(-0.0333415 -0.169997 0)
(-0.0386372 -0.16837 0)
(-0.0442963 -0.166244 0)
(-0.0502582 -0.163577 0)
(-0.0564371 -0.160322 0)
(-0.0627091 -0.156398 0)
(-0.0689087 -0.151679 0)
(-0.0748722 -0.146028 0)
(-0.0805578 -0.139414 0)
(-0.0861555 -0.13202 0)
(-0.0917137 -0.124215 0)
(-0.0966559 -0.116529 0)
(-0.000679248 -0.155607 0)
(-0.00222905 -0.170247 0)
(-0.00409025 -0.17044 0)
(-0.00597241 -0.170341 0)
(-0.00810476 -0.170233 0)
(-0.0104535 -0.170066 0)
(-0.013095 -0.169803 0)
(-0.0160544 -0.169391 0)
(-0.0193635 -0.168774 0)
(-0.0230398 -0.167896 0)
(-0.0270908 -0.166699 0)
(-0.0315116 -0.16513 0)
(-0.0362856 -0.163142 0)
(-0.0413845 -0.160697 0)
(-0.0467688 -0.157769 0)
(-0.0523849 -0.154336 0)
(-0.0581519 -0.150357 0)
(-0.0639449 -0.145735 0)
(-0.0696031 -0.140309 0)
(-0.0750295 -0.133937 0)
(-0.0803269 -0.126639 0)
(-0.085562 -0.118711 0)
(-0.0902458 -0.110742 0)
(-0.000589894 -0.154194 0)
(-0.00214146 -0.168496 0)
(-0.00402034 -0.168584 0)
(-0.00587117 -0.168327 0)
(-0.00795431 -0.168022 0)
(-0.0102008 -0.167616 0)
(-0.0126896 -0.167077 0)
(-0.015436 -0.166359 0)
(-0.018469 -0.165416 0)
(-0.0218053 -0.164197 0)
(-0.0254549 -0.162656 0)
(-0.0294192 -0.16075 0)
(-0.033691 -0.158442 0)
(-0.0382548 -0.155704 0)
(-0.0430876 -0.152518 0)
(-0.048159 -0.148877 0)
(-0.0534232 -0.144772 0)
(-0.0587977 -0.140147 0)
(-0.0641489 -0.134863 0)
(-0.0693408 -0.12871 0)
(-0.0743916 -0.121551 0)
(-0.0793181 -0.113522 0)
(-0.0837131 -0.105207 0)
(-0.000451386 -0.152901 0)
(-0.0019633 -0.166752 0)
(-0.00385285 -0.166748 0)
(-0.005645 -0.166364 0)
(-0.00766059 -0.165899 0)
(-0.00978745 -0.165302 0)
(-0.0121105 -0.164542 0)
(-0.0146358 -0.163579 0)
(-0.0173896 -0.162369 0)
(-0.0203871 -0.16087 0)
(-0.0236401 -0.159042 0)
(-0.0271552 -0.156847 0)
(-0.0309338 -0.154257 0)
(-0.0349721 -0.151248 0)
(-0.0392619 -0.14781 0)
(-0.0437913 -0.143943 0)
(-0.0485415 -0.139656 0)
(-0.0534703 -0.134935 0)
(-0.0584836 -0.129691 0)
(-0.0634479 -0.123709 0)
(-0.0682852 -0.116723 0)
(-0.0729402 -0.108659 0)
(-0.0770475 -0.0999789 0)
(-0.000268568 -0.151794 0)
(-0.00170586 -0.165027 0)
(-0.00360894 -0.164944 0)
(-0.00532391 -0.164463 0)
(-0.00726135 -0.163877 0)
(-0.00925988 -0.163133 0)
(-0.0114131 -0.162202 0)
(-0.0137184 -0.161048 0)
(-0.0161988 -0.159629 0)
(-0.018867 -0.157908 0)
(-0.0217345 -0.155848 0)
(-0.0248106 -0.153414 0)
(-0.0281027 -0.15058 0)
(-0.0316171 -0.147328 0)
(-0.0353589 -0.143648 0)
(-0.0393331 -0.139545 0)
(-0.0435432 -0.135036 0)
(-0.0479813 -0.130137 0)
(-0.0526037 -0.124819 0)
(-0.057304 -0.118918 0)
(-0.0619622 -0.11211 0)
(-0.06639 -0.104089 0)
(-0.0702046 -0.0950872 0)
(-5.12709e-05 -0.150938 0)
(-0.00138201 -0.163334 0)
(-0.0033012 -0.163182 0)
(-0.00492343 -0.162638 0)
(-0.00677327 -0.161963 0)
(-0.00863832 -0.161112 0)
(-0.0106219 -0.160056 0)
(-0.0127148 -0.158759 0)
(-0.0149359 -0.157185 0)
(-0.0172945 -0.155297 0)
(-0.0197995 -0.153059 0)
(-0.022459 -0.150438 0)
(-0.025282 -0.147408 0)
(-0.0282801 -0.143948 0)
(-0.031468 -0.140048 0)
(-0.0348652 -0.135711 0)
(-0.0384952 -0.130955 0)
(-0.0423814 -0.125814 0)
(-0.0465291 -0.120308 0)
(-0.0508963 -0.114361 0)
(-0.0553467 -0.107673 0)
(-0.0596052 -0.0997786 0)
(-0.0631768 -0.0905499 0)
(0.00018668 -0.150393 0)
(-0.00100551 -0.161691 0)
(-0.00293364 -0.161485 0)
(-0.00444369 -0.160909 0)
(-0.00618936 -0.160176 0)
(-0.00791163 -0.159252 0)
(-0.00972266 -0.158106 0)
(-0.0116096 -0.156707 0)
(-0.0135879 -0.155021 0)
(-0.0156632 -0.153013 0)
(-0.01784 -0.15065 0)
(-0.0201221 -0.147896 0)
(-0.0225147 -0.144722 0)
(-0.0250274 -0.141103 0)
(-0.0276767 -0.137022 0)
(-0.0304888 -0.132474 0)
(-0.0335018 -0.127471 0)
(-0.0367645 -0.122046 0)
(-0.0403311 -0.116252 0)
(-0.0442303 -0.110101 0)
(-0.0484134 -0.10341 0)
(-0.0525324 -0.0956616 0)
(-0.0559093 -0.0863555 0)
(0.000425363 -0.150186 0)
(-0.000597168 -0.16013 0)
(-0.00250715 -0.159884 0)
(-0.00387482 -0.159309 0)
(-0.00548447 -0.158542 0)
(-0.00704231 -0.157571 0)
(-0.0086655 -0.156362 0)
(-0.0103417 -0.15489 0)
(-0.0120842 -0.153125 0)
(-0.0138963 -0.151034 0)
(-0.015779 -0.148585 0)
(-0.0177309 -0.145745 0)
(-0.0197505 -0.142481 0)
(-0.0218394 -0.138761 0)
(-0.0240057 -0.134558 0)
(-0.0262697 -0.129853 0)
(-0.0286689 -0.12464 0)
(-0.0312634 -0.118934 0)
(-0.0341383 -0.112789 0)
(-0.0374072 -0.106279 0)
(-0.0411357 -0.0993794 0)
(-0.0450821 -0.0916948 0)
(-0.048388 -0.0824645 0)
(0.00062335 -0.150272 0)
(-0.000198215 -0.158654 0)
(-0.00202175 -0.158384 0)
(-0.00320743 -0.157837 0)
(-0.0046309 -0.157061 0)