/*--------------------------------*- C++ -*----------------------------------*\
| =========                 |                                                 |
| \\      /  F ield         | OpenFOAM: The Open Source CFD Toolbox           |
|  \\    /   O peration     | Version:  2312                                  |
|   \\  /    A nd           | Website:  www.openfoam.com                      |
|    \\/     M anipulation  |                                                 |
\*---------------------------------------------------------------------------*/
FoamFile
{
    version     2.0;
    format      ascii;
    arch        "LSB;label=32;scalar=64";
    class       volScalarField;
    location    "1.05";
    object      alpha.air;
}
// * * * * * * * * * * * * * * * * * * * * * * * * * * * * * * * * * * * * * //

dimensions      [0 0 0 0 0 0 0];

internalField   nonuniform List<scalar> 
2268
(
6.62411e-14
3.82163e-14
2.31712e-14
1.61492e-14
1.23801e-14
1.01198e-14
8.80174e-15
8.4858e-15
1.0382e-14
1.7148e-14
3.32321e-14
6.30227e-14
1.05507e-13
1.48823e-13
1.68387e-13
1.24295e-13
4.98128e-14
3.37862e-14
2.61627e-14
3.29144e-14
9.78937e-15
7.97892e-15
4.93619e-15
1.59326e-13
1.03898e-13
8.79405e-14
8.49632e-14
9.95416e-14
1.15203e-13
1.18886e-13
1.28769e-13
1.75952e-13
2.97136e-13
5.371e-13
9.11455e-13
1.39034e-12
1.83756e-12
2.02169e-12
1.67256e-12
1.3746e-12
1.07862e-12
3.47509e-13
6.36434e-13
1.48183e-12
6.61042e-13
3.64688e-13
1.00922e-12
8.20426e-13
7.76623e-13
6.85273e-13
7.75342e-13
7.77539e-13
7.55149e-13
8.51646e-13
1.13203e-12
1.71577e-12
2.59368e-12
3.88302e-12
5.2303e-12
6.2753e-12
6.57447e-12
7.04701e-12
2.17777e-11
2.30214e-10
1.25067e-10
1.23087e-12
8.34573e-12
2.0971e-12
2.03724e-11
5.13012e-12
4.28144e-12
3.5955e-12
3.06102e-12
2.5599e-12
2.28581e-12
2.40662e-12
2.95223e-12
4.06272e-12
5.46172e-12
7.93267e-12
1.40608e-11
4.05126e-12
3.99369e-12
4.05126e-12
3.99729e-12
6.97216e-12
4.65316e-09
2.75739e-08
9.63852e-10
1.73303e-12
1.72727e-12
6.11087e-11
8.83954e-12
7.45902e-12
5.86938e-12
2.90367e-12
2.39889e-12
2.30197e-12
2.81171e-12
5.98726e-12
1.64642e-11
5.03128e-11
1.34399e-10
1.0555e-09
1.14774e-08
3.53241e-08
5.95345e-08
6.45783e-08
3.9056e-08
4.57248e-09
5.50391e-09
2.7744e-05
0.000138084
0.00023128
6.12391e-11
1.48691e-11
1.83595e-11
3.49503e-11
6.41826e-11
2.31116e-12
2.30717e-12
2.31245e-12
2.31781e-12
5.42367e-10
6.91713e-10
1.24964e-09
3.13351e-09
6.18912e-08
1.88452e-07
2.22644e-07
2.22599e-07
1.67764e-07
3.60577e-08
5.72289e-09
6.41607e-05
0.000793347
0.00366406
0.00610039
1.83417e-11
2.34857e-11
8.27754e-11
1.02527e-09
4.59975e-09
8.93581e-09
1.13254e-08
1.43922e-08
1.31132e-08
4.61505e-09
2.23803e-09
3.16685e-09
1.86343e-08
9.02241e-08
1.9188e-07
2.22468e-07
1.43196e-07
4.26445e-08
5.75312e-09
1.19409e-05
0.000150175
0.00342121
0.0192343
2.06635e-11
3.98504e-11
4.9093e-10
3.15241e-09
8.75075e-09
1.35516e-08
1.71347e-08
2.99721e-08
5.21109e-08
5.14365e-08
2.21016e-08
1.36367e-08
1.01539e-08
8.73125e-09
2.76478e-08
6.99743e-08
1.0266e-07
1.39563e-07
7.00539e-07
2.7539e-09
-1.81499e-07
0.000303482
0.0271919
0.0153561
0.00631942
0.00273257
0.00249596
0.00381059
0.0058676
0.00384449
0.00362431
0.00321226
0.000598887
0.000134099
0.00286962
0.00977024
0.00974767
0.0064696
0.00381542
0.00763258
0.0234189
0.0431605
0.0154446
0.0670322
0.00286858
0.0229511
0.0573011
0.0380556
0.0110984
0.000989088
1.86868e-07
1.11738e-05
2.72642e-05
0.000162357
0.000164293
0.00861704
0.0128779
0.00384448
0.0152231
0.0242318
0.0430172
0.0616254
0.137552
0.155415
0.163906
0.134624
0.0308618
0.00940937
9.54969e-05
1.77555e-07
1.64264e-07
1.78839e-07
1.85115e-07
0.00972421
0.0320353
0.0320641
0.0179965
0.0450329
0.0530041
0.0121285
0.110255
0.202303
0.175237
0.120472
0.13353
0.109014
0.0280597
5.05073e-06
1.00893e-05
1.53343e-07
0.0144822
0.0514392
0.0534233
0.0311857
0.0181329
0.0317556
0.0578411
0.0578412
0.000321023
0.10582
0.164661
0.01838
0.153972
0.289964
0.204324
0.0779271
6.1578e-06
0.000186894
0.0342338
0.133635
0.147995
0.134493
0.00529328
0.00418974
0.0165867
0.0424294
0.0440824
0.000303607
0.101917
0.108418
0.00344559
0.0852956
0.295998
0.401658
0.0627466
0.000466806
0.0267535
0.178956
0.216322
0.170956
0.0864813
0.00412182
0.00426146
0.0108552
0.0131666
0.00973269
0.00549759
0.102006
0.0159396
0.00298882
0.0371529
0.346919
0.404286
0.0782903
0.00692403
0.129041
0.243381
0.243836
0.199183
0.00694156
0.00668609
0.0153755
0.0152769
0.0114378
0.00633327
0.0075991
0.101882
0.000129446
0.0101402
0.076065
0.426356
0.382819
0.0152664
0.0158229
0.152501
0.227701
0.23585
0.0978767
0.0152164
0.00286135
0.00525159
0.0078379
0.00156747
3.75773e-05
0.00570423
2.39308e-11
4.66265e-11
2.97977e-10
1.35649e-09
2.20204e-09
1.74998e-09
1.80618e-08
3.21775e-08
3.23966e-08
7.29173e-08
4.05914e-08
3.42313e-08
3.34055e-08
2.14362e-08
1.48005e-08
1.43259e-08
1.1676e-05
1.05395e-05
1.90827e-06
1.33424e-08
0.00601307
0.207937
0.232952
2.39372e-11
4.92479e-11
1.41759e-10
2.85767e-10
1.16904e-10
4.97847e-11
1.0428e-06
3.83375e-06
2.88341e-06
4.50846e-07
3.58219e-08
3.41144e-08
1.69538e-05
2.63899e-05
1.42263e-08
1.42072e-08
9.50499e-05
4.14442e-05
1.85679e-06
0.110121
0.292142
0.29178
0.0916292
1.77255e-08
3.66347e-09
2.17454e-10
3.33679e-10
6.25768e-11
4.98839e-11
1.12375e-05
1.5982e-05
1.0128e-05
4.2624e-07
0.000259848
3.73824e-07
0.00741763
0.0125448
0.00743125
0.00120887
0.00282883
0.155828
0.202015
0.236664
0.289044
0.0727524
0.000578178
5.17796e-07
6.17261e-08
-1.40518e-11
1.00161e-08
-1.30376e-11
1.01349e-06
1.10375e-06
1.17335e-06
3.95779e-06
0.00810203
0.0276828
0.0469159
0.0144725
0.00506003
0.00506949
0.111116
0.303722
0.301995
0.0800171
0.0772823
0.0662095
0.0265369
0.0280151
4.72921e-08
-3.07551e-10
6.0943e-13
1.63609e-07
7.46602e-09
2.7356e-07
0.00228491
0.0369277
0.0450256
0.122513
0.0449996
0.0470852
0.0720144
0.113313
0.262636
0.263759
0.22631
0.130056
0.0772236
0.120602
0.288919
0.278864
0.0755836
0.133131
0.0977528
0.00492703
3.76967e-05
4.28593e-07
0.0741695
0.119911
0.170628
0.137113
0.163356
0.488793
0.715763
0.773156
0.505531
0.0527708
0.0394846
0.0312906
0.0306537
0.276256
0.35268
0.353001
0.216157
0.000315219
0.720957
0.680111
0.300075
0.108673
0.162434
0.263125
0.187219
0.202005
0.404015
0.898374
0.960032
0.962401
0.920562
0.24435
0.0002136
0.000152918
0.084239
0.238684
0.272397
0.23452
0.0595887
0.0143412
8.73951e-05
0.728318
0.761086
0.658145
0.503626
0.359289
0.112968
0.151855
0.557467
0.984384
0.984538
0.984533
0.928252
0.337628
0.000136033
9.28841e-05
9.33024e-05
0.0508401
0.188086
0.117619
0.017713
0.0163738
0.0153726
0.0446874
0.215988
0.709809
0.711375
0.457511
0.0415581
0.00202842
0.414649
0.984483
0.984523
0.98452
0.931366
0.290787
0.000100349
9.28479e-05
9.28851e-05
9.28479e-05
0.0357266
0.224994
0.266774
0.273528
0.539807
0.749716
0.870426
0.131284
0.549344
0.660279
0.120859
4.18037e-06
0.00454352
0.538823
0.984484
0.984519
0.97467
0.44588
0.000101657
9.97733e-05
0.0180347
0.226425
0.425886
0.643947
0.816266
0.900567
0.954875
0.993558
0.999958
0.999994
0.133025
0.545751
0.424385
1.99058e-05
2.16983e-06
1.08942e-06
0.186545
0.890237
0.984504
0.751068
0.00171825
0.0022238
0.429992
0.825001
0.939751
0.983948
0.999998
0.999984
0.999981
0.999998
0.999999
0.999999
0.999999
0.104354
0.214355
0.184342
4.55898e-06
1.46167e-06
1.09351e-06
1.12227e-06
0.132156
0.522775
0.644795
0.424671
0.609562
0.96222
1
1
1
0.999999
0.999998
1
1
0.999999
0.999999
0.999999
0.070775
5.47063e-06
1.46817e-05
5.36343e-06
2.41862e-06
2.11637e-06
3.91779e-06
0.0065791
0.520214
0.912849
0.993356
0.999848
1
1
1
1
1
1
1
1
1
1
1
0.0242297
-4.39918e-08
5.65104e-06
5.64499e-06
4.57848e-06
5.01263e-06
0.0802298
0.565517
0.909294
0.999999
1
0.999999
0.999996
0.999995
0.999998
1
1
1
1
1
1
1
1
0.0107951
-1.578e-16
1.68861e-06
3.87498e-06
5.68224e-06
0.0446946
0.604502
0.999963
1
1
1
0.999997
0.999995
0.999995
0.999995
0.999998
1
1
1
1
1
1
1
0.0416694
-1.89446e-11
-2.57039e-22
3.03824e-20
0.0315888
0.535285
0.987729
1
1
1
1
0.999997
0.999996
0.999995
0.999997
0.999999
1
1
1
1
1
1
1
0.186887
-1.50308e-11
-1.16732e-18
0.0112499
0.453457
0.978006
1
1
1
1
1
0.999999
0.999998
0.999998
1
1
1
1
1
1
1
1
1
0.204966
1.98243e-26
1.32516e-18
0.254543
0.955144
0.999906
1
1
1
1
1
1
1
1
1
1
1
1
1
1
1
1
1
0.204966
2.47004e-05
0.00673604
0.774886
0.99986
0.999969
1
1
1
1
1
1
1
1
1
1
1
1
1
1
1
1
1
0.170203
6.10375e-05
0.396659
0.9841
1
1
1
1
1
1
1
1
1
1
1
1
1
1
1
1
1
1
1
0.0770846
0.132807
0.95192
1
1
1
1
1
1
1
1
1
1
1
1
1
1
1
1
1
1
1
1
0.0770846
0.720724
0.999999
1
1
1
1
1
1
0.999999
0.999999
1
1
1
1
1
1
1
1
1
1
1
1
0.0770846
0.877695
1
1
1
1
1
1
0.999999
0.999999
0.999999
1
1
1
1
1
1
1
1
1
1
1
1
0.0770846
0.818274
1
1
1
1
1
0.999999
0.999999
0.999999
1
1
1
1
1
1
1
1
1
1
1
1
1
0.0770846
0.771527
0.999997
1
1
1
1
1
0.999999
1
1
1
1
1
1
1
1
1
1
1
1
1
1
0.632254
0.902945
0.999989
0.999999
1
1
1
1
1
1
1
1
1
1
1
1
1
1
1
1
1
1
1
0.999964
0.999799
0.999818
0.99999
1
1
1
1
1
1
1
1
1
1
1
1
1
1
1
1
1
1
1
0.999991
0.999994
0.999773
0.999992
1
1
1
1
1
1
1
1
1
1
1
1
1
1
1
1
1
1
1
0.999976
0.999997
0.99993
0.999986
0.999993
1
1
1
1
1
1
1
1
1
1
1
1
1
1
1
1
1
1
0.999974
0.999984
0.999983
0.999975
0.999988
1
1
1
1
1
1
1
1
1
1
1
1
1
1
1
1
1
1
0.999984
0.99997
0.999972
0.999975
0.999995
1
1
1
1
1
1
1
1
1
1
1
1
1
1
1
1
1
1
0.999999
0.999975
0.999984
0.999996
1
1
1
1
1
1
1
1
1
1
1
1
1
1
1
1
1
1
1
1
0.999999
1
1
1
1
1
1
1
1
1
1
1
1
1
1
1
1
1
1
1
1
1
1
1
1
1
1
1
1
1
1
1
1
1
1
1
1
1
1
1
1
1
1
1
1
1
1
1
1
1
1
1
1
1
1
1
1
1
1
1
1
1
1
1
1
1
1
1
1
1
1
1
1
1
1
1
1
1
1
1
1
1
1
1
1
1
1
1
1
1
1
1
1
1
1
1
1
1
1
1
1
1
1
1
1
1
1
1
1
1
1
1
1
1
1
1
1
1
1
1
1
1
1
1
1
1
1
1
1
1
1
1
1
1
1
1
1
1
1
1
1
1
1
1
1
1
1
1
1
1
1
1
1
1
1
1
1
1
1
1
1
1
1
1
1
1
1
1
1
1
1
1
1
1
1
1
1
1
1
1
1
1
1
1
1
1
1
1
1
1
1
1
1
1
1
1
1
1
1
1
1
1
1
1
1
1
1
1
1
1
1
1
1
1
1
1
1
1
1
1
1
1
1
1
1
1
1
1
1
0.075237
0.00287705
0.0238144
0.0861796
3.09304e-20
0.00282255
0.00870835
0.00981833
-5.68328e-07
-6.14832e-06
0.000154224
0.000108257
0.104713
0.104752
0.0996
0.0246344
0.00169427
0.0219341
0.0211488
0.00457268
8.91678e-05
0.00014691
0.000166393
0.000170297
8.65534e-05
0.000111751
0.000149854
0.000172187
0.144308
0.172715
0.192184
0.226606
0.940017
0.965832
0.981058
0.990589
0.999997
0.999966
0.999934
0.999933
0.999999
0.999999
0.999999
0.999999
1
0.999999
0.999999
0.999999
1
1
1
1
1
1
1
1
1
1
1
1
1
1
1
1
1
1
1
1
1
1
1
1
1
1
1
1
1
1
1
1
1
1
1
1
1
1
1
1
1
1
1
1
1
1
1
1
1
1
1
1
1
1
1
1
1
1
1
1
1
1
1
1
1
1
1
1
1
1
1
1
1
1
1
1
1
1
1
1
1
1
1
1
1
1
1
1
1
1
1
1
1
1
1
1
1
1
1
1
1
1
1
1
1
1
1
1
1
1
1
1
1
1
1
1
1
1
1
1
0.0863232
2.1674e-05
2.12279e-05
0.124974
0.506265
0.433148
0.0629599
0.014653
0.0245455
0.159675
0.254556
0.154102
0.0551411
0.000240636
3.75706e-05
3.75706e-05
3.75706e-05
3.7571e-05
4.46031e-05
0.00653569
-1.76982e-05
0.074648
0.448332
0.508486
0.454911
0.114118
0.0331284
0.0268554
0.209559
0.324428
0.326047
0.149167
0.0605591
0.00311613
3.75706e-05
3.75706e-05
0.0024079
0.00185817
0.00029283
1.02334e-05
0.20564
0.466718
0.509025
0.505223
0.165057
0.122906
0.115086
0.129631
0.215407
0.368118
0.364757
0.269811
0.143371
0.111218
0.0649147
0.0133363
0.00797936
0.000512623
0.0268809
0.329139
0.427388
0.433988
0.446931
0.382215
0.251357
0.30323
0.313788
0.2789
0.279243
0.301541
0.33475
0.352765
0.348622
0.318628
0.273481
0.138503
0.000731668
0.0517851
0.142218
0.129441
0.0675609
0.0520955
0.0905937
0.264614
0.372524
0.412119
0.490736
0.557229
0.661261
0.820873
0.906972
0.936489
0.864935
0.847409
0.711098
0.000739906
0.00231531
0.000991872
0.00097236
0.00180424
0.0616621
0.212777
0.410638
0.600359
0.790371
0.939951
0.995193
0.999154
0.999316
0.999176
0.999568
0.998582
0.99049
0.980678
0.000184509
0.00019389
0.0147262
0.108274
0.460113
0.854299
0.981611
0.987393
0.995555
0.999692
0.999982
0.99998
0.999997
0.999985
0.999963
0.999965
0.999961
0.995686
0.989923
0.341187
0.576097
0.830627
0.972171
0.993808
0.996966
0.999994
0.999944
0.999636
0.999098
0.999231
0.999886
1
0.999929
0.999594
0.999637
0.999867
0.999876
0.999876
0.996885
0.99948
0.999541
0.999911
0.999993
0.999995
0.999995
0.999902
0.998704
0.998673
0.998772
1
1
0.999923
0.999472
0.999467
0.999504
0.999876
0.999833
0.999945
0.999996
0.999999
0.999999
0.999997
0.999993
0.999992
0.99998
0.999633
0.999393
1
1
1
1
1
0.999677
0.99934
0.999324
0.999831
0.999999
0.999999
0.999999
0.999999
0.999999
0.999983
0.999917
0.99988
1
1
1
1
1
1
1
1
0.999307
0.998419
0.999627
0.999998
0.999997
0.999993
0.999992
0.999996
0.999995
0.999937
0.999734
0.999734
0.999863
0.999988
1
1
1
1
1
0.999337
0.998407
0.99842
1
1
0.999994
0.999983
0.999983
0.999993
0.999996
0.999899
0.999693
0.999693
0.999782
0.999991
1
1
1
1
0.999962
0.999369
0.999342
1
1
1
0.999995
0.999983
0.999983
0.999994
0.999999
0.999966
0.999711
0.99971
0.999971
1
1
1
1
1
1
1
1
1
1
1
0.999992
0.999983
0.999984
0.999998
1
0.999986
0.999983
0.999988
1
1
1
1
0.999954
0.999989
1
1
1
1
1
1
0.999987
0.999984
0.999993
1
1
1
1
1
1
1
1
0.999819
0.999904
1
1
1
1
1
1
1
0.999992
0.999993
1
1
1
1
1
1
1
1
0.999819
0.999882
0.999999
1
1
1
1
1
1
1
0.999999
0.999999
1
1
1
1
1
1
1
0.999908
0.999975
1
1
1
1
1
1
1
1
1
1
1
1
1
1
1
1
1
1
1
1
1
1
1
1
1
1
1
1
1
1
1
1
1
1
1
1
1
1
1
1
1
1
1
1
1
1
1
1
1
1
1
1
1
1
1
0.999999
0.999998
0.999999
1
1
1
1
1
1
1
1
1
1
1
1
1
1
1
1
0.999988
0.999985
0.999999
1
1
1
1
1
1
1
1
1
1
1
1
1
1
1
0.999997
0.999984
0.999984
0.999999
1
1
1
1
1
1
1
1
1
1
1
1
1
1
1
0.999998
0.999984
0.999995
1
1
1
1
1
1
1
1
1
1
1
1
1
1
1
1
1
0.999998
1
1
1
1
1
1
1
1
1
1
1
1
1
1
1
1
1
1
1
1
1
1
1
1
1
1
1
1
1
1
1
1
1
1
1
1
1
1
1
1
1
1
1
1
1
1
1
1
1
1
1
1
1
1
1
1
1
1
1
1
1
1
1
1
1
1
1
1
1
1
1
1
1
1
1
1
1
1
1
1
1
1
1
1
1
1
1
1
1
1
1
1
1
1
1
1
1
1
1
1
1
1
1
1
1
1
1
1
1
1
1
1
1
1
1
1
1
1
1
1
1
1
1
1
1
1
1
1
1
1
1
1
1
1
1
1
1
1
1
1
1
1
1
1
1
1
1
1
1
1
1
1
1
1
1
1
1
1
1
1
1
1
1
1
1
1
1
1
1
1
1
1
1
1
1
1
1
1
1
1
1
1
1
1
1
1
1
1
1
1
1
1
1
1
1
1
1
1
1
1
1
1
1
1
1
1
1
1
1
1
1
1
1
1
1
1
1
1
1
1
1
1
1
1
1
1
1
1
1
1
1
1
1
1
1
1
1
1
1
1
1
1
1
1
1
1
1
1
1
1
1
1
1
1
1
1
1
1
1
1
1
1
1
1
1
1
1
1
1
1
1
1
1
1
1
1
1
1
1
1
1
1
1
1
1
1
1
1
1
1
1
1
1
1
1
1
1
1
1
1
1
1
1
1
1
1
1
1
1
1
1
1
1
1
1
1
1
1
1
1
1
1
1
1
1
)
;

boundaryField
{
    leftWall
    {
        type            alphaContactAngle;
        thetaProperties 
6
(
(galistan air) 90 0 0 0
(oil galistan) 90 0 0 0
(water oil) 90 0 0 0
(water air) 90 0 0 0
(oil air) 90 0 0 0
(water galistan) 90 0 0 0
);
        value           nonuniform List<scalar> 
50
(
6.62411e-14
1.59326e-13
1.00922e-12
5.13012e-12
8.83954e-12
1.48691e-11
1.83417e-11
2.06635e-11
2.39308e-11
2.39372e-11
1.77255e-08
5.17796e-07
4.72921e-08
0.133131
0.720957
0.728318
0.215988
0.131284
0.133025
0.104354
0.070775
0.0242297
0.0107951
0.0416694
0.186887
0.204966
0.204966
0.170203
0.0770846
0.0770846
0.0770846
0.0770846
0.0770846
0.632254
0.999964
0.999991
0.999976
0.999974
0.999984
0.999999
1
1
1
1
1
1
1
1
1
1
)
;
    }
    rightWall
    {
        type            alphaContactAngle;
        thetaProperties 
6
(
(galistan air) 90 0 0 0
(oil galistan) 90 0 0 0
(water oil) 90 0 0 0
(water air) 90 0 0 0
(oil air) 90 0 0 0
(water galistan) 90 0 0 0
);
        value           nonuniform List<scalar> 
50
(
0.0431605
0.0430172
0.0121285
0.000321023
0.000303607
0.00549759
0.0075991
0.00570423
4.46031e-05
0.00185817
0.00797936
0.138503
0.711098
0.980678
0.989923
0.999876
0.999833
0.999831
0.999627
0.99842
0.999342
1
1
1
0.999999
1
1
1
0.999999
0.999999
0.999999
1
1
1
1
1
1
1
1
1
1
1
1
1
1
1
1
1
1
1
)
;
    }
    lowerWall
    {
        type            alphaContactAngle;
        thetaProperties 
6
(
(galistan air) 90 0 0 0
(oil galistan) 90 0 0 0
(water oil) 90 0 0 0
(water air) 90 0 0 0
(oil air) 90 0 0 0
(water galistan) 90 0 0 0
);
        value           nonuniform List<scalar> 
62
(
6.62411e-14
3.82163e-14
2.31712e-14
1.61492e-14
1.23801e-14
1.01198e-14
8.80174e-15
8.4858e-15
1.0382e-14
1.7148e-14
3.32321e-14
6.30227e-14
1.05507e-13
1.48823e-13
1.68387e-13
1.24295e-13
4.98128e-14
3.37862e-14
2.61627e-14
3.29144e-14
9.78937e-15
7.97892e-15
4.93619e-15
4.93619e-15
3.64688e-13
2.03724e-11
6.11087e-11
6.12391e-11
0.00610039
0.0192343
0.0271919
0.075237
0.00287705
0.0238144
0.0861796
0.0153561
0.0154446
0.0616254
0.110255
0.10582
0.101917
0.102006
0.101882
0.0153561
0.00631942
0.00273257
0.00249596
0.00381059
0.0058676
0.00384449
0.00362431
0.00321226
0.000598887
0.000134099
0.00286962
0.00977024
0.00974767
0.0064696
0.00381542
0.00763258
0.0234189
0.0431605
)
;
    }
    atmosphere
    {
        type            inletOutlet;
        inletValue      uniform 1;
        value           nonuniform List<scalar> 
46
(
1
1
1
1
1
1
1
1
1
1
1
1
1
1
1
1
1
1
1
1
1
1
1
1
1
1
1
1
1
1
1
1
1
1
1
1
1
1
1
1
1
1
1
1
1
1
)
;
    }
    defaultFaces
    {
        type            empty;
    }
}


// ************************************************************************* //
