/*--------------------------------*- C++ -*----------------------------------*\
| =========                 |                                                 |
| \\      /  F ield         | OpenFOAM: The Open Source CFD Toolbox           |
|  \\    /   O peration     | Version:  2312                                  |
|   \\  /    A nd           | Website:  www.openfoam.com                      |
|    \\/     M anipulation  |                                                 |
\*---------------------------------------------------------------------------*/
FoamFile
{
    version     2.0;
    format      ascii;
    arch        "LSB;label=32;scalar=64";
    class       volScalarField;
    location    "1.05";
    object      p_rgh;
}
// * * * * * * * * * * * * * * * * * * * * * * * * * * * * * * * * * * * * * //

dimensions      [1 -1 -2 0 0 0 0];

internalField   nonuniform List<scalar> 
2268
(
7617.71
7483.7
7284.87
6965.89
6666.23
6372.23
6104.29
5876.69
5695.56
5558.74
5458.31
5386.41
5335.61
5300
5276.22
5262.99
5259.33
5263.15
5270.48
5276.92
5280.45
5280.07
5279.7
7646.14
7507.04
7294.85
6968.85
6663.46
6364.85
6094.06
5865.72
5685.41
5550.42
5451.57
5381
5331.19
5296.15
5272.67
5259.77
5256.7
5261.48
5269.8
5276.77
5280.06
5279.63
5279.41
7702.18
7546.08
7316.2
6973.6
6655.91
6348.44
6072.41
5843.07
5664.62
5533.7
5438.15
5370.4
5322.72
5288.96
5266.09
5253.85
5251.93
5258.65
5269.04
5277.04
5279.77
5278.73
5278.48
7790.85
7604.38
7348.26
6980.04
6641.91
6321.06
6037.13
5806.93
5631.95
5508.43
5417.61
5353.96
5309.6
5277.86
5255.9
5244.64
5244.48
5254.39
5268.25
5277.87
5279.46
5276.94
5276.79
7919.19
7683.61
7391.75
6987.28
6620.29
6282.09
5986.89
5755.86
5585.49
5463.82
5355
5275.83
5216.22
5166.54
5125.67
5106.41
5114.54
5153.16
5200.79
5232.58
5241.42
5241.12
5248.92
8081.96
7801.1
7449.28
6990.65
6582.13
6169.65
5360.99
4613.05
3948.14
3469.59
3175.94
2984.64
2849.8
2737.33
2644.21
2601.95
2624.27
2732.61
2892.89
3024.34
3085.4
3124.68
3222.1
8294.02
7951.65
7517.03
6809.36
5062.61
3114.7
2090.41
1606.3
1416.67
1390.98
1377.02
1366.66
1360.61
1358
1356.96
1355.85
1353.38
1347.71
1337.7
1323.58
1304.81
1284.89
1259.46
8510.43
8134.32
6898.16
3596.59
1796.56
1504.19
1465.92
1435.44
1409.81
1389.53
1374.78
1364.54
1358.7
1356.36
1355.81
1355.35
1353.36
1348.45
1339.41
1325.77
1303.09
1278.24
1228.48
1726.03
1718.26
1709.05
1611.46
1596.24
1636.59
1761.11
1958.34
2405.96
3121.02
3649.56
3986.99
4068.04
4010.47
3897.02
3698.83
3399.53
3105.43
2992.08
1606.93
1593.95
1696.73
1610.15
1580.42
1632.42
1782.17
2014.11
2303.09
2781.79
3423.84
3887.03
4062.35
3982.88
3860.54
3676.7
3368.1
3064.53
2516.32
1262.44
1284.99
1501.85
1525.54
1495.15
1469.37
1581.89
1846.7
2152.57
2425.67
3147.08
3755.71
3965.54
3867.2
3727.87
3660.05
3271.23
2881.6
2213.97
1248.76
1263.96
1301.6
1332.67
1289.27
1260.22
1342.15
1692.66
2029.8
2297.53
3303.31
3618.6
3148.08
3148.48
3308.42
3097.32
2388.26
1843.6
2104.24
1253.14
1306.93
1520.33
1491.33
1442.36
1350
1354.02
1578.26
2042.98
2830.47
2935.8
2570.78
2405.46
2668
2274.02
1727.46
1479.22
1456.43
1944.62
1253.86
1500.71
1608.96
1548.51
1468.93
1334.39
1328.42
1594.97
2437.66
2924.06
2666.9
2466.66
2263.52
1658.82
1220.59
1441.77
1605.73
1556.58
1783.16
1274.48
1581.57
1482.66
1323
1331.08
1406.62
1363.92
1539.52
2240.83
2937.94
3177.54
2918.63
1757.86
1082.95
1140.57
1394.76
1461.38
1350.34
1220.05
1275.62
1430.82
1204.53
1086.41
1107.99
1365.85
1450.15
1438.72
1967.85
3112.62
3243.04
2616.19
1365.79
1110.89
1152.95
1235.91
1159.44
856.092
897.025
8994.06
7041.17
2926.24
1579.53
1539.59
1497.31
1459.23
1427.46
1402.3
1382.44
1367.96
1358.62
1353.75
1352.4
1352.72
1353.27
1352.49
1347.83
1338.9
1330.76
1285.01
1194.17
1139.74
10029.7
3048.41
1558.46
1548.23
1524.16
1489.16
1452.88
1419.23
1390.32
1367.78
1352.28
1344.03
1341.77
1344.04
1346.97
1350.91
1355.67
1362.73
1320.34
1175.02
1168.44
1206.05
1206.83
7187.37
2197.88
1556.76
1547.67
1519.32
1481.85
1441.82
1402.93
1368.71
1342.19
1325.82
1320.65
1314.99
1317.12
1332.94
1350.21
1335.25
1208.63
1063.3
1109.69
1188.88
1298.44
1280.4
1478.1
1503.96
1544.39
1538.42
1508.23
1467.21
1422.38
1376.65
1336.46
1296.72
1252.46
1210.61
1253.56
1177.21
1195.25
1212.63
930.748
853.179
1023.59
1205.46
1298.83
1238.49
1104.37
1510.61
1529.97
1547.27
1535.31
1500.68
1453.31
1401.51
1310.44
1197.99
1088.05
961.979
936.365
940.982
958.174
864.047
782.129
769.87
895.155
942.16
1049.51
995.707
840.152
770.8
1401.07
1445.92
1561.48
1547.16
1491.32
1358.44
1168.45
984.372
734.843
678.897
482.705
364.452
362.376
557.024
826.734
828.167
868.2
903.667
771.443
725.395
699.089
691.209
790.821
635.359
739.509
1226.72
1451.16
1251.61
1035.39
763.389
680.686
519.93
196.429
163.563
182.197
239.498
699.542
852.314
852.621
802.439
704.655
682.535
681.482
775.81
791.486
781.042
512.146
512.644
740.335
933.665
816.719
831.397
752.341
438.748
134.211
137.082
142.293
189.978
616.051
858.383
853.021
847.14
804.094
697.665
738.792
800.186
785.113
765.207
727.233
903.618
520.834
626.392
777.463
954.457
932.279
569.017
127.949
129.601
132.979
176.258
660.601
876.431
864.586
851.599
839.107
798.759
640.128
600.558
592.124
376.819
208.758
105.481
1017.44
681.272
589.09
976.292
1031.57
973.284
494.278
125.947
125.621
133.706
562.673
911.583
888.823
854.476
668.204
493.828
306.051
158.252
89.3074
44.2886
9.12504
1.19528
0.33719
1069.93
685.081
777.274
1125.28
1085.6
1035.15
829.197
204.534
119.674
316.819
959.221
929.998
525.324
161.102
55.1443
14.4376
-0.000756484
0.335227
0.427415
0.0434506
0.0647079
0.10761
0.119247
1147.91
1020.13
1029.26
1174.18
1138.02
1094.6
1050.49
906.264
535.91
373.953
569.241
383.867
36.7366
-0.171437
-0.32056
-0.303672
-0.181891
-0.111238
-0.0905568
-0.0335796
0.0245653
0.0713512
0.101114
1226.37
1274.49
1248
1215.56
1180.81
1143.39
1101.86
1057.39
508.935
91.97
6.84185
-0.346875
-0.435484
-0.38429
-0.378962
-0.361561
-0.310212
-0.23947
-0.155408
-0.0772741
-0.0148306
0.031822
0.0672378
1309.43
1308.99
1281.28
1248.2
1212.8
1175.48
1046.31
484.149
99.9733
0.197666
-0.271897
-0.392957
-0.400623
-0.419568
-0.433655
-0.431108
-0.383759
-0.298237
-0.202371
-0.12151
-0.0563611
-0.00533281
0.0350521
1344.67
1332.71
1306.74
1273.32
1234.76
1139.65
461.852
0.650329
-0.191538
-0.118881
-0.257361
-0.357794
-0.410905
-0.441055
-0.463142
-0.464658
-0.412757
-0.326697
-0.231996
-0.153294
-0.0880969
-0.0357009
0.00640943
1320.34
1351.55
1328.59
1295.3
1214.27
569.638
15.1637
0.0355893
-0.0740742
-0.161771
-0.297059
-0.370304
-0.420041
-0.454179
-0.471783
-0.470016
-0.407049
-0.325112
-0.243445
-0.171139
-0.109561
-0.0586339
-0.0168416
1149.17
1371.33
1352.04
1304.62
705.695
28.1727
0.0652407
-0.0238908
-0.126693
-0.204982
-0.313707
-0.379094
-0.421523
-0.450412
-0.463026
-0.43215
-0.380849
-0.311348
-0.241023
-0.176847
-0.120977
-0.0735508
-0.0336986
1135.05
1396.33
1380.63
1009.93
60.6917
0.351186
0.0293944
-0.0643323
-0.184653
-0.247621
-0.324131
-0.374483
-0.408905
-0.425902
-0.42269
-0.393388
-0.344556
-0.287075
-0.228554
-0.173576
-0.124368
-0.081461
-0.0445214
1153.08
1429.03
1405.99
313.337
0.380871
0.116609
-0.0471931
-0.119028
-0.200583
-0.261354
-0.31905
-0.356959
-0.37986
-0.386918
-0.374643
-0.345998
-0.305484
-0.259037
-0.211016
-0.164728
-0.122157
-0.0840476
-0.0504487
1232.92
1470.57
883.864
23.006
-0.0137406
-0.078612
-0.137279
-0.162803
-0.222151
-0.265076
-0.303989
-0.330772
-0.343988
-0.343389
-0.328972
-0.302845
-0.269334
-0.23147
-0.191929
-0.153076
-0.116503
-0.0829795
-0.0527705
1414.83
1316.84
73.4736
0.0751765
-0.115866
-0.183097
-0.161977
-0.201216
-0.237612
-0.263901
-0.286822
-0.302377
-0.307752
-0.30252
-0.287689
-0.265116
-0.237278
-0.206006
-0.173145
-0.140387
-0.108967
-0.079588
-0.0526067
1467.18
440.214
-0.161788
-0.158584
-0.207983
-0.200718
-0.194828
-0.226867
-0.24476
-0.258045
-0.269275
-0.276087
-0.275513
-0.267552
-0.252982
-0.233223
-0.209575
-0.183241
-0.155537
-0.127669
-0.100567
-0.0748252
-0.0508057
1522.37
200.287
-0.217405
-0.271255
-0.270111
-0.225486
-0.231229
-0.242949
-0.247501
-0.251234
-0.253283
-0.253387
-0.248247
-0.238387
-0.224132
-0.206318
-0.185705
-0.163093
-0.13939
-0.115442
-0.0919324
-0.069335
-0.0479763
1580.73
309.302
-0.33351
-0.335637
-0.257205
-0.254429
-0.250383
-0.250081
-0.246905
-0.243122
-0.23938
-0.233462
-0.224962
-0.213709
-0.199701
-0.18331
-0.164987
-0.145253
-0.12471
-0.103936
-0.0834239
-0.0635345
-0.0445415
1643.2
403.383
-0.292408
-0.285948
-0.256648
-0.260453
-0.255219
-0.249591
-0.241194
-0.232997
-0.224281
-0.214805
-0.204234
-0.192174
-0.178481
-0.163273
-0.146796
-0.129374
-0.111391
-0.0932304
-0.0752378
-0.0576833
-0.0407889
683.655
178.867
-0.0746888
-0.222907
-0.236065
-0.246099
-0.245096
-0.239135
-0.229221
-0.218477
-0.207577
-0.196522
-0.185023
-0.172769
-0.159593
-0.145508
-0.130625
-0.11514
-0.0992878
-0.0833172
-0.0674688
-0.0519401
-0.0369053
-0.34124
-0.204165
0.0430396
-0.253145
-0.221856
-0.227379
-0.22796
-0.221439
-0.211624
-0.200786
-0.189618
-0.178298
-0.166782
-0.154892
-0.142471
-0.129526
-0.116091
-0.102286
-0.088254
-0.0741558
-0.0601559
-0.0463973
-0.033017
-0.289468
-0.3333
0.144508
-0.288476
-0.193678
-0.206976
-0.205828
-0.19945
-0.191024
-0.181341
-0.170942
-0.160211
-0.149301
-0.138202
-0.126773
-0.11499
-0.102908
-0.0906006
-0.0781603
-0.065692
-0.0533098
-0.0411169
-0.0292177
-0.17852
-0.233219
-0.0748448
-0.205754
-0.153413
-0.180027
-0.179969
-0.1757
-0.169366
-0.161327
-0.152213
-0.142552
-0.132624
-0.122541
-0.112252
-0.101662
-0.0908685
-0.0799234
-0.0689005
-0.0578748
-0.046927
-0.0361316
-0.0255734
-0.091375
-0.101213
-0.0995327
-0.123471
-0.117439
-0.152651
-0.154349
-0.152477
-0.148091
-0.141701
-0.134022
-0.125626
-0.116852
-0.10787
-0.0987504
-0.0893986
-0.0798186
-0.0701309
-0.0603901
-0.0506586
-0.040998
-0.0314647
-0.022124
-0.0157851
0.00371975
-0.0189843
-0.0688432
-0.107908
-0.127402
-0.130951
-0.130868
-0.128015
-0.123086
-0.116789
-0.109673
-0.102087
-0.0942301
-0.0862037
-0.0780348
-0.0696537
-0.0611308
-0.0525629
-0.0440063
-0.0355119
-0.0271229
-0.0188949
-0.0263225
0.0126869
-0.0224382
-0.0809326
-0.0964196
-0.105665
-0.110278
-0.111273
-0.10955
-0.105835
-0.100768
-0.0948435
-0.0883916
-0.0816167
-0.0746387
-0.0675284
-0.0602713
-0.0528498
-0.0453667
-0.0378857
-0.0304577
-0.0231191
-0.0159128
-0.0297725
-0.0376233
-0.0500062
-0.0704601
-0.0796998
-0.0878129
-0.0923808
-0.0938413
-0.0928785
-0.0901117
-0.0860811
-0.0812063
-0.0757839
-0.07001
-0.06401
-0.0578631
-0.0516196
-0.0452422
-0.0387591
-0.0322728
-0.0258267
-0.0194555
-0.0131989
-0.0328335
-0.0377637
-0.0452586
-0.0580492
-0.0663826
-0.0730126
-0.0769986
-0.0785156
-0.0780064
-0.0759416
-0.0727463
-0.0687634
-0.0642473
-0.0593768
-0.0542732
-0.0490179
-0.0436664
-0.0382408
-0.0327089
-0.0271455
-0.0216095
-0.0161375
-0.0107636
-0.032393
-0.0347415
-0.0404321
-0.0487246
-0.055324
-0.0605058
-0.0637501
-0.0650969
-0.0648191
-0.0632503
-0.0607102
-0.0574691
-0.0537375
-0.0496709
-0.0453798
-0.040942
-0.0364123
-0.0318297
-0.0271654
-0.0224788
-0.0177938
-0.0131568
-0.00860778
-0.03012
-0.0312858
-0.0354947
-0.0409904
-0.0458798
-0.0497657
-0.0522562
-0.0533259
-0.0531337
-0.0519058
-0.0498746
-0.0472468
-0.0441905
-0.0408353
-0.0372769
-0.0335857
-0.0298131
-0.0259995
-0.0221834
-0.0182737
-0.0143651
-0.0105075
-0.00673166
-0.0267752
-0.0273909
-0.0304098
-0.0341008
-0.0375756
-0.0403653
-0.0421668
-0.0429292
-0.0427401
-0.0417479
-0.040117
-0.0380006
-0.0355284
-0.032804
-0.0299068
-0.0268966
-0.0238184
-0.0207071
-0.017591
-0.0144506
-0.011293
-0.00817168
-0.0051275
-0.0227903
-0.0231803
-0.025256
-0.0276975
-0.03006
-0.0319599
-0.0331731
-0.033647
-0.033427
-0.0326083
-0.0313038
-0.0296236
-0.0276642
-0.0255049
-0.0232082
-0.0208224
-0.0183844
-0.015923
-0.0134615
-0.0110187
-0.00856573
-0.00613113
-0.00377612
-0.0184502
-0.0186923
-0.0200226
-0.0215676
-0.023077
-0.0242764
-0.0250133
-0.0252448
-0.0249936
-0.0243194
-0.0232973
-0.0220031
-0.0205052
-0.018861
-0.0171169
-0.0153092
-0.0134664
-0.0116111
-0.00976313
-0.00794195
-0.00614098
-0.00435534
-0.00264863
-0.0137997
-0.0139323
-0.0147013
-0.0155808
-0.0164377
-0.0170972
-0.0174656
-0.0175136
-0.0172528
-0.0167193
-0.0159601
-0.015024
-0.0139555
-0.0127928
-0.0115668
-0.0103024
-0.00901947
-0.00773424
-0.00646072
-0.00521044
-0.00399226
-0.0028166
-0.00171689
-0.0089413
-0.00895245
-0.0092846
-0.00965666
-0.0100116
-0.0102593
-0.0103533
-0.0102791
-0.0100429
-0.00966399
-0.00916812
-0.00858167
-0.00792869
-0.00722982
-0.00650199
-0.00575889
-0.00501199
-0.00427229
-0.00355297
-0.00287176
-0.00224231
-0.00158398
-0.00101011
-0.00409017
-0.00399474
-0.00396081
-0.00390137
-0.00383268
-0.00373767
-0.00360944
-0.00344783
-0.00325642
-0.00304104
-0.0028076
-0.00256226
-0.00231071
-0.00205747
-0.00180573
-0.00155743
-0.00131348
-0.001074
-0.000839546
-0.000615493
-0.000429352
-0.000355616
-0.000336777
1110.04
1101.12
1043.98
1052.63
1233.76
1321.2
1321.09
1255.01
1282.99
1268
1236.3
1210.86
1026.46
1029.95
898.298
858.141
797.538
780.337
768.008
771.84
777.713
770.787
765.244
760.949
765.706
758.208
751.826
746.628
642.208
613.29
596.433
570.331
48.2046
27.8685
15.8157
9.15244
0.27948
0.988298
1.71598
1.73672
0.133884
0.145607
0.154156
0.162764
0.115819
0.124412
0.132713
0.140286
0.0868198
0.0975691
0.107131
0.115455
0.056762
0.0687797
0.0800051
0.0899747
0.0297894
0.0429448
0.0552973
0.0663784
0.00730957
0.0211519
0.0340543
0.0457737
-0.00961769
0.00442359
0.0173851
0.0292552
-0.0212328
-0.00746943
0.0051343
0.016771
-0.0284677
-0.0153327
-0.00335025
0.00779291
-0.0323888
-0.0200971
-0.00889131
0.0016021
-0.0339418
-0.0226002
-0.0122442
-0.00248125
-0.033861
-0.0234959
-0.0140015
-0.00500037
-0.0326716
-0.023261
-0.0146134
-0.00637067
-0.0307678
-0.0222563
-0.0144052
-0.00689656
-0.0284209
-0.0207489
-0.0136504
-0.00683329
-0.0258256
-0.018927
-0.0125171
-0.00634674
-0.0231014
-0.016913
-0.0111502
-0.00558312
-0.020366
-0.014825
-0.00964714
-0.00464357
-0.0176944
-0.0127534
-0.00812888
-0.00364575
-0.0151462
-0.0107605
-0.00663805
-0.00264012
-0.0127386
-0.00886678
-0.00522572
-0.00168392
-0.0105177
-0.00711836
-0.00391354
-0.000804935
-0.00850965
-0.00555375
-0.00277103
-6.78839e-05
-0.0067406
-0.00420182
-0.00180506
0.00051477
-0.00520261
-0.00305625
-0.00103709
0.000918911
-0.00391184
-0.00213364
-0.000461115
0.00114596
-0.00286103
-0.00143565
-0.00010466
0.00117336
-0.00204053
-0.000951916
6.23475e-05
0.00102504
-0.00140941
-0.0006413
6.01443e-05
0.00071966
-0.000947398
-0.000484092
-7.67866e-05
0.000284174
-0.000667141
-0.000486608
-0.000360265
-0.000281053
-0.000415096
-0.000514461
-0.000663315
-0.000858572
1235.95
1250.52
1151.05
967.93
819.262
932.021
1116.11
1236.01
2158.62
3180.79
2439.47
948.395
1025.58
1161.25
1138.65
1022.37
866.082
718.865
709.155
1226.97
1185.42
1030.61
774.81
744.382
731.948
808.833
1230.01
1566.31
1131.38
646.924
734.812
887.03
1127.25
1081.51
839.476
709.43
635.049
664.924
1165.3
1003.76
1015.23
942.197
921.761
707.929
769.418
820.44
808.475
592.71
565.451
535.34
632.189
631.617
636.108
600.51
605.858
703.293
769.28
841.295
803.138
912.519
1019.79
1018.35
988.147
927.123
809.675
601.331
572.033
613.814
602.709
546.636
448.233
405.362
422.552
514.916
660.496
731.979
767.13
728.529
693.428
727.581
847.969
1053.22
1118.81
947.42
841.866
761.08
697.703
589.399
404.19
225.874
125.551
103.112
198.465
373.423
458.912
752.66
737.482
724.119
711.824
699.203
690.472
640.443
542.571
434.382
288.912
126.609
53.7804
14.4279
11.7989
14.0166
8.10833
25.0185
156.766
320.298
736.63
718.546
693.069
637.782
595.49
425.104
329.706
222.724
74.0211
2.98558
0.552268
0.516061
0.5153
0.566408
0.645856
0.855012
1.69893
77.4304
183.767
486.136
313.164
146.59
139.873
122.196
59.3836
0.497238
0.370779
0.65919
1.16424
1.07383
0.562485
0.494481
0.578872
0.908065
1.22409
1.29084
0.583859
0.821511
10.5238
11.025
9.67922
1.86368
0.291047
0.263527
0.341954
0.390297
1.33514
1.41319
1.36123
0.443762
0.470152
0.560572
0.966849
1.05826
1.04314
0.673686
0.957194
1.44928
0.289314
0.236872
0.249003
0.245053
0.254467
0.290971
0.314775
0.612046
0.84241
0.372925
0.413662
0.436996
0.453922
0.469001
0.758779
1.06329
1.06503
0.646374
0.174782
0.188997
0.196067
0.206643
0.216675
0.246551
0.329013
0.382518
0.295329
0.323521
0.358944
0.384422
0.400125
0.407382
0.40399
0.39032
1.00766
1.84226
0.784909
0.152352
0.16629
0.180571
0.192809
0.200833
0.216199
0.287503
0.504182
0.529809
0.438023
0.348669
0.353186
0.361697
0.362836
0.352479
0.329169
0.929647
1.85024
1.87125
0.128626
0.144865
0.163395
0.18572
0.198121
0.202759
0.214191
0.327587
0.561199
0.5929
0.52954
0.330344
0.326832
0.326301
0.31649
0.294845
0.300336
0.904763
0.948142
0.105636
0.124822
0.13977
0.158587
0.185259
0.200078
0.203398
0.212834
0.264484
0.562037
0.587225
0.321805
0.297747
0.298884
0.294007
0.282071
0.26583
0.254151
0.266776
0.0837253
0.105128
0.122493
0.138089
0.162183
0.188027
0.20359
0.202471
0.215378
0.246307
0.26805
0.279444
0.274873
0.278522
0.278449
0.275049
0.325766
0.282329
0.275658
0.0641623
0.086909
0.106088
0.123316
0.139754
0.171304
0.191884
0.197023
0.20359
0.218208
0.23297
0.246554
0.256499
0.262021
0.26533
0.267371
0.490334
0.390419
0.278497
0.0479304
0.071224
0.0915365
0.109754
0.126931
0.143843
0.170581
0.184502
0.191468
0.205175
0.218431
0.230389
0.239937
0.247011
0.252408
0.257124
0.492231
0.419253
0.274411
0.0351545
0.0583401
0.0789986
0.0977245
0.115149
0.131861
0.147981
0.164426
0.179328
0.191971
0.204367
0.215526
0.225
0.232785
0.239349
0.245441
0.372518
0.291088
0.264755
0.0254724
0.0479198
0.0684622
0.0870947
0.104451
0.120974
0.136768
0.151805
0.165934
0.178979
0.190829
0.201486
0.210848
0.219006
0.226319
0.233418
0.239793
0.247808
0.253635
0.0183321
0.0397976
0.0596327
0.0778511
0.094849
0.110917
0.126163
0.140572
0.154047
0.166476
0.17781
0.188053
0.197233
0.205517
0.213246
0.22098
0.228908
0.236227
0.241453
0.0131621
0.0334406
0.0524072
0.0699254
0.0862681
0.101676
0.116238
0.129946
0.142736
0.154544
0.16534
0.175148
0.184046
0.192237
0.200055
0.207953
0.217505
0.226437
0.229588
0.0094928
0.0284696
0.0463939
0.063032
0.0785701
0.0932008
0.106997
0.119955
0.132034
0.143194
0.153419
0.162737
0.171244
0.179146
0.186778
0.194667
0.222006
0.2338
0.21642
0.00696277
0.0245787
0.0413557
0.0570051
0.0716476
0.0854324
0.0984154
0.110594
0.121941
0.132427
0.142041
0.150807
0.158817
0.166267
0.173496
0.185167
0.214206
0.220518
0.201701
0.0052946
0.0215384
0.0371199
0.0517215
0.0654156
0.0783142
0.0904566
0.101838
0.112436
0.122226
0.131193
0.13935
0.146777
0.153651
0.160326
0.170983
0.200699
0.187933
0.185291
0.004272
0.0191687
0.0335447
0.0470739
0.0597933
0.0717845
0.0830719
0.0936459
0.103485
0.112563
0.120859
0.128367
0.135149
0.141364
0.147405
0.153748
0.163303
0.165786
0.170637
0.00372773
0.0173205
0.0305058
0.042961
0.0546981
0.0657751
0.0762031
0.0859674
0.0950448
0.103404
0.111017
0.117857
0.123963
0.129473
0.134846
0.140518
0.146757
0.151827
0.156129
0.00352565
0.0158679
0.0278912
0.039286
0.0500469
0.0602132
0.0697858
0.0787448
0.0870649
0.0947105
0.101644
0.107819
0.113253
0.118053
0.122781
0.127932
0.133631
0.138109
0.141934
0.00355073
0.0146995
0.0255996
0.035958
0.0457582
0.0550255
0.0637527
0.0719166
0.0794904
0.0864344
0.0927076
0.098244
0.103047
0.107182
0.11152
0.116209
0.121164
0.125087
0.128213
0.00370518
0.013723
0.0235424
0.0328946
0.0417557
0.0501406
0.0580371
0.0654198
0.0722623
0.0785229
0.0841626
0.0891031
0.0933465
0.0969065
0.100865
0.104769
0.109079
0.112305
0.115177
0.00391634
0.012861
0.0216438
0.0300224
0.0379694
0.0454918
0.0525748
0.0591922
0.0653205
0.0709177
0.0759539
0.0803453
0.0841099
0.087197
0.0902595
0.0939971
0.0976543
0.100223
0.102259
0.00412789
0.0120518
0.0198395
0.0272777
0.0343367
0.0410181
0.0473062
0.0531755
0.0586072
0.0635604
0.0680207
0.0719033
0.0752608
0.0779508
0.0806081
0.0833988
0.0868329
0.0886251
0.0903208
0.00429011
0.0112398
0.0180743
0.0246053
0.0308029
0.0366654
0.042178
0.0473172
0.0520704
0.0563991
0.0603073
0.0637115
0.0667173
0.0690499
0.0714168
0.0735112
0.0760553
0.0773851
0.0790623
0.00435907
0.0103823
0.0163032
0.0219591
0.0273212
0.0323868
0.037144
0.0415723
0.0456669
0.0493928
0.0527719
0.0557212
0.0584243
0.0603931
0.0625454
0.0640709
0.0660182
0.0669941
0.0683766
0.00430368
0.00944444
0.0144903
0.0193013
0.0238528
0.0281433
0.0321659
0.0359048
0.0393643
0.0425143
0.0453886
0.0478927
0.0502552
0.0520222
0.0538392
0.0550211
0.0566129
0.057161
0.0582242
0.00410584
0.00840372
0.0126085
0.0166022
0.0203663
0.0239034
0.0272136
0.0302885
0.033142
0.0357513
0.0381562
0.0402584
0.0423227
0.0438386
0.0453951
0.0462827
0.0475923
0.0477764
0.0486634
0.00375009
0.00724207
0.0106379
0.0138393
0.0168382
0.0196447
0.0222677
0.0247087
0.02699
0.0290966
0.0310681
0.0328128
0.0345741
0.0358401
0.0371531
0.037825
0.0389079
0.0388983
0.0398161
0.00323222
0.00595318
0.00856736
0.0109999
0.0132565
0.0153573
0.0173218
0.0191622
0.020905
0.0225408
0.0241038
0.0255215
0.0269884
0.0279771
0.029097
0.0296833
0.0306154
0.0305242
0.0314608
0.00255838
0.00454067
0.00639767
0.00808366
0.00962184
0.0110451
0.012383
0.0136542
0.0148836
0.0160645
0.0172244
0.0183084
0.0194452
0.0202678
0.0211921
0.0217548
0.0225712
0.0225896
0.0234903
0.00175044
0.00301584
0.00413307
0.00509498
0.0059435
0.00672257
0.00746467
0.0081883
0.00891437
0.0096414
0.0103938
0.0111377
0.0119571
0.0126147
0.0133786
0.013935
0.0146741
0.0149209
0.0156578
0.000814056
0.00137814
0.00177724
0.00204923
0.00224591
0.002411
0.00257361
0.00275286
0.00297153
0.00323864
0.00357988
0.00398303
0.00450204
0.00499145
0.00561955
0.00616528
0.00685895
0.00727072
0.00785583
-0.000223769
-0.000334012
-0.000615069
-0.000999067
-0.00144106
-0.00189745
-0.00233329
-0.00271995
-0.00302691
-0.00323283
-0.00330745
-0.00324634
-0.00301335
-0.00269178
-0.00218015
-0.00164741
-0.000967627
-0.000464907
7.7512e-05
-0.00125816
-0.00202242
-0.00299098
-0.00407563
-0.00522148
-0.00636617
-0.0074613
-0.00846806
-0.00934458
-0.0100608
-0.0105744
-0.0108769
-0.0109244
-0.0107775
-0.010348
-0.00982335
-0.00905791
-0.00845602
-0.00767965
)
;

boundaryField
{
    leftWall
    {
        type            fixedFluxPressure;
        gradient        uniform 0;
        value           nonuniform List<scalar> 
50
(
7617.71
7646.14
7702.18
7790.85
7919.19
8081.96
8294.02
8510.43
8994.06
10029.7
7187.37
1478.1
1510.61
1401.07
635.359
512.146
903.618
1017.44
1069.93
1147.91
1226.37
1309.43
1344.67
1320.34
1149.17
1135.05
1153.08
1232.92
1414.83
1467.18
1522.37
1580.73
1643.2
683.655
-0.34124
-0.289468
-0.17852
-0.091375
-0.0157851
-0.0263225
-0.0297725
-0.0328335
-0.032393
-0.03012
-0.0267752
-0.0227903
-0.0184502
-0.0137997
-0.0089413
-0.00409017
)
;
    }
    rightWall
    {
        type            fixedFluxPressure;
        gradient        uniform 0;
        value           nonuniform List<scalar> 
50
(
2992.08
2516.32
2213.97
2104.24
1944.62
1783.16
1220.05
897.025
709.155
664.924
769.28
731.979
458.912
320.298
183.767
0.821511
0.957194
0.646374
0.784909
1.87125
0.948142
0.266776
0.275658
0.278497
0.274411
0.264755
0.253635
0.241453
0.229588
0.21642
0.201701
0.185291
0.170637
0.156129
0.141934
0.128213
0.115177
0.102259
0.0903208
0.0790623
0.0683766
0.0582242
0.0486634
0.0398161
0.0314608
0.0234903
0.0156578
0.00785583
7.7512e-05
-0.00767965
)
;
    }
    lowerWall
    {
        type            fixedFluxPressure;
        gradient        uniform 0;
        value           nonuniform List<scalar> 
62
(
7617.71
7483.7
7284.87
6965.89
6666.23
6372.23
6104.29
5876.69
5695.56
5558.74
5458.31
5386.41
5335.61
5300
5276.22
5262.99
5259.33
5263.15
5270.48
5276.92
5280.45
5280.07
5279.7
5279.7
5279.41
5278.48
5276.79
5248.92
3222.1
1259.46
1228.48
1110.04
1101.12
1043.98
1052.63
1726.03
1606.93
1262.44
1248.76
1253.14
1253.86
1274.48
1275.62
1726.03
1718.26
1709.05
1611.46
1596.24
1636.59
1761.11
1958.34
2405.96
3121.02
3649.56
3986.99
4068.04
4010.47
3897.02
3698.83
3399.53
3105.43
2992.08
)
;
    }
    atmosphere
    {
        type            totalPressure;
        rho             rho;
        psi             none;
        gamma           1;
        p0              uniform 0;
        value           nonuniform List<scalar> 
46
(
0
0
0
0
0
0
0
0
0
0
0
0
0
0
0
0
0
0
0
0
0
-2.5399e-07
-8.47833e-05
-0.000229702
-0.000397648
-0.000634147
-0.00096874
-0.00160419
-0.00274089
-0.00414261
-0.00567381
-0.00726051
-0.00882652
-0.0103153
-0.0116877
-0.0128959
-0.0139115
-0.0146751
-0.0151905
-0.015383
-0.0153357
-0.0148934
-0.0143662
-0.0133962
-0.0126941
-0.0112095
)
;
    }
    defaultFaces
    {
        type            empty;
    }
}


// ************************************************************************* //
