/*--------------------------------*- C++ -*----------------------------------*\
| =========                 |                                                 |
| \\      /  F ield         | OpenFOAM: The Open Source CFD Toolbox           |
|  \\    /   O peration     | Version:  2312                                  |
|   \\  /    A nd           | Website:  www.openfoam.com                      |
|    \\/     M anipulation  |                                                 |
\*---------------------------------------------------------------------------*/
FoamFile
{
    version     2.0;
    format      ascii;
    arch        "LSB;label=32;scalar=64";
    class       volVectorField;
    location    "1.05";
    object      U;
}
// * * * * * * * * * * * * * * * * * * * * * * * * * * * * * * * * * * * * * //

dimensions      [0 1 -1 0 0 0 0];

internalField   nonuniform List<vector> 
2268
(
(0.00297687 -0.000762018 0)
(0.0132741 0.00239008 0)
(-0.00384132 0.0038566 0)
(-0.0179876 0.00577247 0)
(-0.0428153 0.00661845 0)
(-0.0674544 0.00630129 0)
(-0.089534 0.00512142 0)
(-0.106442 0.0034841 0)
(-0.117012 0.00179488 0)
(-0.121358 0.000288478 0)
(-0.12035 -0.000942965 0)
(-0.115062 -0.0019113 0)
(-0.106558 -0.00261266 0)
(-0.0959635 -0.00302377 0)
(-0.0844254 -0.00315575 0)
(-0.072881 -0.00309145 0)
(-0.061868 -0.00294155 0)
(-0.051497 -0.0028163 0)
(-0.0414925 -0.00280238 0)
(-0.0312312 -0.00287085 0)
(-0.0197776 -0.00281487 0)
(-0.0120748 -0.00288738 0)
(0.00278159 0.000295572 0)
(0.00418694 -0.00750229 0)
(0.0161373 0.00290522 0)
(-0.00216626 0.00874865 0)
(-0.0173268 0.0146931 0)
(-0.043551 0.017519 0)
(-0.0693401 0.0171116 0)
(-0.0921455 0.0142308 0)
(-0.109347 0.00992187 0)
(-0.119887 0.00533661 0)
(-0.124063 0.00115923 0)
(-0.122869 -0.00222645 0)
(-0.117385 -0.00487292 0)
(-0.108679 -0.00677428 0)
(-0.0978934 -0.00785127 0)
(-0.0862266 -0.0081259 0)
(-0.0746583 -0.00785473 0)
(-0.0637279 -0.00736802 0)
(-0.0535314 -0.00698297 0)
(-0.0437699 -0.0069543 0)
(-0.0338169 -0.00721149 0)
(-0.0230561 -0.00725321 0)
(-0.0151245 -0.00759642 0)
(-0.00306411 -0.00460333 0)
(0.00513559 -0.0127791 0)
(0.0197683 0.00576928 0)
(-0.00015626 0.0162003 0)
(-0.0174753 0.0265709 0)
(-0.0468431 0.0315116 0)
(-0.0751897 0.0304926 0)
(-0.0994811 0.0251665 0)
(-0.117226 0.0172955 0)
(-0.127658 0.00899937 0)
(-0.1314 0.00158192 0)
(-0.129626 -0.00402775 0)
(-0.123526 -0.00846134 0)
(-0.114189 -0.0116748 0)
(-0.102805 -0.0134681 0)
(-0.0906962 -0.0138397 0)
(-0.0789247 -0.0132758 0)
(-0.0680012 -0.0123723 0)
(-0.0579248 -0.0116736 0)
(-0.0482255 -0.0116084 0)
(-0.0380926 -0.0120016 0)
(-0.0270546 -0.011937 0)
(-0.0175222 -0.0119149 0)
(-0.00512724 -0.00881364 0)
(0.000248494 -0.0200089 0)
(0.018973 0.00769292 0)
(-0.00278264 0.0234378 0)
(-0.0228677 0.0380826 0)
(-0.0566112 0.0443199 0)
(-0.0884586 0.041705 0)
(-0.114705 0.0337598 0)
(-0.132904 0.0227074 0)
(-0.142464 0.011607 0)
(-0.144341 0.00203307 0)
(-0.140341 -0.0057576 0)
(-0.132354 -0.0121666 0)
(-0.121351 -0.0168011 0)
(-0.108612 -0.0192786 0)
(-0.0956206 -0.0195763 0)
(-0.0835219 -0.0185342 0)
(-0.0727391 -0.0170817 0)
(-0.0630806 -0.0160301 0)
(-0.053697 -0.0159982 0)
(-0.0433504 -0.0168392 0)
(-0.0316513 -0.0171368 0)
(-0.0198254 -0.0175278 0)
(-0.00611749 -0.0148971 0)
(-0.0119566 -0.0232389 0)
(0.010224 0.0093721 0)
(-0.0137771 0.032598 0)
(-0.0370992 0.0554298 0)
(-0.0746195 0.0658234 0)
(-0.108706 0.062659 0)
(-0.135512 0.0500497 0)
(-0.152362 0.0323415 0)
(-0.158452 0.0150072 0)
(-0.155439 -6.91864e-05 0)
(-0.146634 -0.0116075 0)
(-0.134933 -0.0196756 0)
(-0.121403 -0.025033 0)
(-0.107263 -0.0276731 0)
(-0.093777 -0.0276412 0)
(-0.0817869 -0.0259614 0)
(-0.0715324 -0.0235991 0)
(-0.0627518 -0.0214741 0)
(-0.0543308 -0.0207975 0)
(-0.0445401 -0.0220455 0)
(-0.0331982 -0.0232303 0)
(-0.0202813 -0.0240547 0)
(-0.00921015 -0.0213958 0)
(-0.0264819 -0.020159 0)
(-0.000383268 0.0114917 0)
(-0.0235428 0.0421935 0)
(-0.0494745 0.070236 0)
(-0.0930186 0.0738259 0)
(-0.128606 0.0602586 0)
(-0.150947 0.0429048 0)
(-0.160467 0.0240452 0)
(-0.157304 0.00699183 0)
(-0.144109 -0.00726617 0)
(-0.12786 -0.0185323 0)
(-0.112185 -0.0264511 0)
(-0.0981613 -0.0317649 0)
(-0.0856849 -0.0341745 0)
(-0.074575 -0.0334282 0)
(-0.0645452 -0.0309587 0)
(-0.0555864 -0.0281715 0)
(-0.0478325 -0.0264062 0)
(-0.0406679 -0.0269522 0)
(-0.0324779 -0.0291629 0)
(-0.0238056 -0.0302175 0)
(-0.0124686 -0.0304165 0)
(-0.0116337 -0.0301025 0)
(-0.0366553 -0.0118152 0)
(-0.00371446 0.0105913 0)
(-0.027052 0.0494738 0)
(-0.0468585 0.0811604 0)
(-0.0660535 0.0916561 0)
(-0.074865 0.0839763 0)
(-0.0555976 0.0639685 0)
(0.0135797 0.0328791 0)
(0.0949821 0.0100296 0)
(0.125937 -0.00667014 0)
(0.149443 -0.0164396 0)
(0.160034 -0.0233962 0)
(0.154834 -0.0278702 0)
(0.137466 -0.0299588 0)
(0.11712 -0.0299939 0)
(0.104617 -0.0290495 0)
(0.101964 -0.0265892 0)
(0.104303 -0.0237602 0)
(0.104671 -0.0236023 0)
(0.10183 -0.0287421 0)
(0.0918107 -0.0284116 0)
(0.0862022 -0.0175057 0)
(0.0275208 -0.0154549 0)
(-0.0398167 -0.00897515 0)
(0.00348995 0.00946916 0)
(-0.0152866 0.0593421 0)
(0.0225589 0.0895933 0)
(0.0173896 0.115131 0)
(0.0310277 0.0838028 0)
(0.10125 0.0185766 0)
(0.167149 -0.0247105 0)
(0.212869 -0.0337046 0)
(0.24978 -0.0367431 0)
(0.278397 -0.0368963 0)
(0.296554 -0.0336796 0)
(0.301969 -0.027562 0)
(0.292494 -0.021054 0)
(0.269041 -0.0183761 0)
(0.239815 -0.0215215 0)
(0.216344 -0.025611 0)
(0.202172 -0.0261228 0)
(0.192551 -0.0227937 0)
(0.189342 -0.0280539 0)
(0.176187 -0.0371496 0)
(0.17281 -0.0261458 0)
(0.0759981 0.00801753 0)
(-0.0139836 -0.017032 0)
(0.0895957 0.000604127 0)
(0.0707534 0.0119392 0)
(0.00807897 0.0151802 0)
(-0.00445165 -0.00226021 0)
(0.0114335 -0.00226086 0)
(-0.0184098 0.0257079 0)
(-0.159545 0.0221677 0)
(-0.143393 -0.0294364 0)
(-0.0773316 -0.0251097 0)
(-0.104081 -0.0037042 0)
(-0.115431 -0.00588023 0)
(-0.048066 -0.0283675 0)
(0.0859214 -0.0368904 0)
(0.186944 -0.0298266 0)
(0.27993 -0.0245288 0)
(0.352038 -0.0200906 0)
(0.380851 -0.0056291 0)
(0.326638 0.0620073 0)
(-0.00936597 -0.0198002 0)
(0.0265583 -0.0248913 0)
(-0.00311492 0.0121542 0)
(0.0589607 0.0176012 0)
(0.129955 -0.0034795 0)
(0.149592 0.0101601 0)
(0.140236 0.0340754 0)
(0.0881171 0.040574 0)
(0.0304905 0.00342389 0)
(-0.112323 0.00929734 0)
(-0.154018 0.0161881 0)
(-0.114772 -0.0176964 0)
(-0.0409649 -0.0575034 0)
(0.0429831 -0.0657457 0)
(0.128593 -0.0587326 0)
(0.218909 -0.0519337 0)
(0.280324 -0.0364399 0)
(0.250288 0.0200547 0)
(0.145145 0.194057 0)
(0.0615896 -0.0261026 0)
(-0.110036 0.0105483 0)
(-0.0484179 -0.0147639 0)
(0.0475015 -0.0373367 0)
(0.0789451 -0.0347778 0)
(0.0976154 -0.0104634 0)
(0.0639572 0.0431255 0)
(-0.0262168 0.0710281 0)
(-0.187994 0.0585941 0)
(-0.37471 0.0619809 0)
(-0.31412 0.00652124 0)
(-0.216457 -0.0666451 0)
(-0.128593 -0.094429 0)
(-0.0584893 -0.105139 0)
(0.0094259 -0.107446 0)
(0.0971037 -0.09206 0)
(0.140542 -0.0385149 0)
(0.0691834 0.086139 0)
(-0.0748675 0.256077 0)
(-0.0905002 -0.00682657 0)
(-0.162859 0.03186 0)
(-0.165688 -0.0556693 0)
(-0.170158 -0.0422813 0)
(-0.165592 -0.0187693 0)
(-0.213772 0.0277743 0)
(-0.350434 0.118492 0)
(-0.426098 0.15098 0)
(-0.512005 0.123319 0)
(-0.512794 0.0514229 0)
(-0.351185 -0.0625456 0)
(-0.247687 -0.111831 0)
(-0.154984 -0.123318 0)
(-0.111624 -0.128538 0)
(-0.0974001 -0.125784 0)
(-0.0672206 -0.101582 0)
(-0.0387169 -0.018024 0)
(-0.0565505 0.122959 0)
(-0.0950189 0.201464 0)
(-0.222324 0.102813 0)
(-0.255586 0.0477685 0)
(-0.275986 -0.038081 0)
(-0.2684 -0.0496984 0)
(-0.291195 -0.0138617 0)
(-0.370466 0.0533479 0)
(-0.558068 0.167164 0)
(-0.662263 0.182085 0)
(-0.620836 0.10299 0)
(-0.488348 -0.0138418 0)
(-0.354406 -0.103756 0)
(-0.231956 -0.152869 0)
(-0.154274 -0.137471 0)
(-0.165542 -0.127697 0)
(-0.204267 -0.115094 0)
(-0.230142 -0.10861 0)
(-0.206687 -0.0482961 0)
(-0.154679 0.13172 0)
(0.0572522 0.149853 0)
(-0.226708 0.198327 0)
(-0.271092 0.0472324 0)
(-0.287464 -0.0393579 0)
(-0.30248 -0.038176 0)
(-0.370493 0.0240522 0)
(-0.474015 0.117237 0)
(-0.625176 0.216604 0)
(-0.692348 0.184929 0)
(-0.625055 0.0571347 0)
(-0.508226 -0.0720969 0)
(-0.374276 -0.175901 0)
(-0.270815 -0.19619 0)
(-0.205932 -0.149604 0)
(-0.203962 -0.117356 0)
(-0.268383 -0.0990509 0)
(-0.280275 -0.110321 0)
(-0.225896 -0.052459 0)
(-0.152915 0.0746685 0)
(0.165822 0.153458 0)
(-0.212611 0.277843 0)
(-0.256681 0.0686743 0)
(-0.272611 -0.0293562 0)
(-0.308782 -0.018634 0)
(-0.421731 0.0658922 0)
(-0.539982 0.164182 0)
(-0.635578 0.245964 0)
(-0.696938 0.202296 0)
(-0.636273 0.0289194 0)
(-0.520107 -0.134804 0)
(-0.412278 -0.226197 0)
(-0.343963 -0.224711 0)
(-0.294318 -0.172761 0)
(-0.234547 -0.0876523 0)
(-0.257351 -0.0872561 0)
(-0.224705 -0.123599 0)
(-0.136393 -0.120662 0)
(0.0358586 -0.0680126 0)
(0.146052 0.156825 0)
(-0.199724 0.388188 0)
(-0.229378 0.0996276 0)
(-0.2395 -0.00573311 0)
(-0.291306 0.023331 0)
(-0.454253 0.145454 0)
(-0.575826 0.209043 0)
(-0.644746 0.260065 0)
(-0.685549 0.200778 0)
(-0.611923 -0.0124026 0)
(-0.50409 -0.193142 0)
(-0.441487 -0.256028 0)
(-0.402982 -0.241891 0)
(-0.374273 -0.190376 0)
(-0.301026 -0.111524 0)
(-0.214209 -0.122628 0)
(-0.12905 -0.164255 0)
(-0.0508617 -0.178398 0)
(0.0395576 -0.0530697 0)
(0.105878 0.204188 0)
(-0.0449471 0.0037422 0)
(0.0331512 0.00652179 0)
(0.102458 0.0358863 0)
(0.0925944 0.11102 0)
(0.0797782 0.0770957 0)
(0.169996 0.00927661 0)
(0.237478 -0.0297909 0)
(0.28216 -0.0467611 0)
(0.318534 -0.0551135 0)
(0.345608 -0.0549369 0)
(0.361953 -0.0483813 0)
(0.366922 -0.0374642 0)
(0.3596 -0.0244223 0)
(0.338699 -0.0120828 0)
(0.30587 -0.00411675 0)
(0.267239 -0.00606735 0)
(0.235832 -0.0115359 0)
(0.213444 -0.0226162 0)
(0.181981 -0.0288692 0)
(0.128544 -0.014549 0)
(-0.00400295 0.0210056 0)
(-0.135081 0.0872335 0)
(-0.168093 0.158496 0)
(-0.0750456 0.00320546 0)
(0.118515 -0.141099 0)
(0.0121032 0.0362355 0)
(0.140549 0.0635937 0)
(0.255489 0.000606542 0)
(0.341049 -0.0451547 0)
(0.399819 -0.0699654 0)
(0.441948 -0.0781749 0)
(0.471126 -0.0763947 0)
(0.487986 -0.0656421 0)
(0.492851 -0.0478649 0)
(0.483552 -0.0262545 0)
(0.462525 0.00337694 0)
(0.432519 0.0379119 0)
(0.392221 0.056278 0)
(0.346709 0.0441737 0)
(0.293256 0.0239589 0)
(0.210045 0.0287477 0)
(0.00724489 0.109852 0)
(-0.209505 0.174232 0)
(-0.337271 0.164163 0)
(-0.429078 0.15157 0)
(-0.468234 0.14681 0)
(-0.0456373 -0.0472926 0)
(0.153979 -0.0726107 0)
(0.100531 -0.0211469 0)
(0.244426 -0.0799324 0)
(0.342334 -0.114759 0)
(0.410513 -0.130581 0)
(0.46095 -0.133436 0)
(0.498001 -0.12268 0)
(0.523075 -0.105735 0)
(0.53409 -0.0799471 0)
(0.534224 -0.041336 0)
(0.521572 -0.00588904 0)
(0.497724 0.0173162 0)
(0.448631 0.050991 0)
(0.36911 0.0827605 0)
(0.263963 0.094545 0)
(0.0935107 0.154284 0)
(-0.143739 0.267846 0)
(-0.303273 0.317415 0)
(-0.43078 0.299027 0)
(-0.493709 0.245109 0)
(-0.525842 0.207939 0)
(-0.535762 0.187091 0)
(-0.011556 -0.191399 0)
(0.0850712 -0.172717 0)
(0.179507 -0.156475 0)
(0.286123 -0.171817 0)
(0.366675 -0.179608 0)
(0.422047 -0.175903 0)
(0.461046 -0.168177 0)
(0.485252 -0.145198 0)
(0.498561 -0.116651 0)
(0.490787 -0.0884695 0)
(0.485185 -0.059546 0)
(0.416376 0.000326043 0)
(0.266628 0.0840006 0)
(0.159351 0.173385 0)
(0.0125141 0.228151 0)
(-0.138013 0.268763 0)
(-0.271315 0.372508 0)
(-0.450689 0.452158 0)
(-0.532227 0.423137 0)
(-0.56554 0.340178 0)
(-0.580726 0.258952 0)
(-0.585361 0.209166 0)
(-0.587989 0.181226 0)
(0.0660968 -0.166919 0)
(0.115145 -0.223561 0)
(0.191971 -0.257225 0)
(0.272621 -0.256131 0)
(0.337392 -0.244312 0)
(0.373753 -0.220273 0)
(0.391475 -0.200899 0)
(0.384197 -0.172378 0)
(0.385159 -0.139297 0)
(0.296546 -0.0644878 0)
(0.135414 0.0959406 0)
(0.0183659 0.185498 0)
(-0.124138 0.239387 0)
(-0.25518 0.325347 0)
(-0.412028 0.379821 0)
(-0.541902 0.428994 0)
(-0.642771 0.506979 0)
(-0.664622 0.497658 0)
(-0.656671 0.435831 0)
(-0.65545 0.346921 0)
(-0.663991 0.269862 0)
(-0.669823 0.228744 0)
(-0.678325 0.193705 0)
(0.0523625 -0.282204 0)
(0.109997 -0.285963 0)
(0.16176 -0.339178 0)
(0.211495 -0.321577 0)
(0.252042 -0.289247 0)
(0.246605 -0.242216 0)
(0.231317 -0.197091 0)
(0.0897769 -0.0875748 0)
(-0.0135832 0.0517906 0)
(-0.147672 0.114701 0)
(-0.195487 0.179901 0)
(-0.342882 0.300481 0)
(-0.5731 0.422768 0)
(-0.754615 0.48546 0)
(-0.83055 0.482876 0)
(-0.843151 0.488547 0)
(-0.822647 0.496772 0)
(-0.790838 0.470289 0)
(-0.758741 0.423709 0)
(-0.743252 0.354912 0)
(-0.748171 0.285465 0)
(-0.752644 0.232207 0)
(-0.751081 0.176747 0)
(0.0464103 -0.336117 0)
(0.122664 -0.312849 0)
(0.121593 -0.373802 0)
(0.105649 -0.329423 0)
(0.098031 -0.268397 0)
(-0.093977 -0.109946 0)
(-0.172104 -0.0362578 0)
(-0.27359 0.0284342 0)
(-0.335031 0.0812123 0)
(-0.436472 0.167938 0)
(-0.838347 0.385155 0)
(-1.13964 0.648615 0)
(-1.20191 0.600008 0)
(-1.04033 0.485962 0)
(-1.01144 0.459989 0)
(-0.970349 0.453412 0)
(-0.926326 0.455321 0)
(-0.885705 0.442692 0)
(-0.860676 0.403824 0)
(-0.838357 0.344379 0)
(-0.822972 0.281793 0)
(-0.802069 0.231931 0)
(-0.784943 0.180822 0)
(0.0150468 -0.533056 0)
(0.177256 -0.342943 0)
(0.0484292 -0.348395 0)
(-0.0772615 -0.235274 0)
(-0.225101 -0.104656 0)
(-0.322314 -0.0435715 0)
(-0.410623 0.0130551 0)
(-0.47645 0.0665676 0)
(-0.591632 0.250734 0)
(-1.26032 0.694208 0)
(-1.48883 0.777937 0)
(-1.22979 0.502846 0)
(-1.14304 0.425069 0)
(-1.09485 0.411501 0)
(-1.0588 0.406627 0)
(-1.02017 0.405535 0)
(-0.982143 0.407239 0)
(-0.946972 0.401104 0)
(-0.914883 0.3591 0)
(-0.88823 0.293613 0)
(-0.862398 0.230361 0)
(-0.845944 0.169298 0)
(-0.833615 0.111368 0)
(-0.0873667 -0.555615 0)
(0.0959853 -0.328745 0)
(-0.123174 -0.190855 0)
(-0.273849 -0.0911765 0)
(-0.406296 -0.00847003 0)
(-0.502985 0.0396779 0)
(-0.591557 0.072028 0)
(-0.645076 0.191618 0)
(-1.03233 0.83829 0)
(-1.25577 0.902349 0)
(-1.09672 0.499909 0)
(-1.07714 0.419959 0)
(-1.07266 0.395992 0)
(-1.06298 0.380059 0)
(-1.04944 0.374627 0)
(-1.03017 0.368008 0)
(-1.00491 0.3617 0)
(-0.975405 0.353719 0)
(-0.94985 0.317034 0)
(-0.923014 0.265248 0)
(-0.890828 0.227108 0)
(-0.857941 0.190442 0)
(-0.829316 0.146111 0)
(-0.135458 -0.468486 0)
(-0.11453 -0.188086 0)
(-0.287274 -0.0214301 0)
(-0.438218 0.0629676 0)
(-0.528763 0.101247 0)
(-0.636616 0.12389 0)
(-0.747566 0.168283 0)
(-0.865907 0.502998 0)
(-0.969114 0.997359 0)
(-0.922581 0.82307 0)
(-0.982092 0.514339 0)
(-1.00744 0.451905 0)
(-1.0228 0.407115 0)
(-1.03402 0.385458 0)
(-1.03618 0.370488 0)
(-1.02604 0.358957 0)
(-1.0027 0.352744 0)
(-0.972793 0.353385 0)
(-0.944972 0.328538 0)
(-0.914538 0.265055 0)
(-0.875306 0.219681 0)
(-0.859908 0.187454 0)
(-0.874482 0.117579 0)
(-0.174414 -0.339301 0)
(-0.203432 -0.120338 0)
(-0.38171 0.112785 0)
(-0.488904 0.171273 0)
(-0.586122 0.203329 0)
(-0.707112 0.246925 0)
(-0.839702 0.33994 0)
(-0.957824 0.519743 0)
(-0.864356 0.874942 0)
(-0.885582 0.74993 0)
(-0.942262 0.590725 0)
(-0.972232 0.482298 0)
(-0.983972 0.428546 0)
(-0.990984 0.393522 0)
(-1.00183 0.373237 0)
(-1.00209 0.354439 0)
(-1.01307 0.351182 0)
(-1.03556 0.334544 0)
(-0.975139 0.291849 0)
(-0.893838 0.200156 0)
(-0.781958 0.159169 0)
(-0.646761 0.105719 0)
(-0.506607 0.0181648 0)
(-0.181029 -0.153424 0)
(-0.27195 0.0808887 0)
(-0.396395 0.219262 0)
(-0.491119 0.269863 0)
(-0.591225 0.310389 0)
(-0.706375 0.360227 0)
(-0.825437 0.452389 0)
(-0.905568 0.607852 0)
(-0.904187 0.78039 0)
(-0.866416 0.807894 0)
(-0.930577 0.630119 0)
(-0.952772 0.503053 0)
(-0.912199 0.428822 0)
(-0.869659 0.427375 0)
(-0.956613 0.401597 0)
(-1.00945 0.371189 0)
(-0.977631 0.355024 0)
(-0.9016 0.254783 0)
(-0.764897 0.154892 0)
(-0.588266 0.0545815 0)
(-0.418059 -0.0120749 0)
(-0.278268 -0.0506144 0)
(-0.1765 -0.0796495 0)
(-0.166782 0.0648761 0)
(-0.258639 0.190845 0)
(-0.370415 0.308729 0)
(-0.459908 0.367742 0)
(-0.555326 0.416151 0)
(-0.655706 0.467271 0)
(-0.756916 0.543232 0)
(-0.836673 0.649321 0)
(-0.852179 0.765037 0)
(-0.816838 0.865136 0)
(-0.842397 0.68701 0)
(-0.697231 0.406706 0)
(-0.869245 0.375445 0)
(-0.883648 0.497542 0)
(-0.87967 0.419587 0)
(-0.852032 0.357786 0)
(-0.781533 0.254621 0)
(-0.644515 0.116998 0)
(-0.439552 -0.0462211 0)
(-0.293671 -0.132211 0)
(-0.188023 -0.15654 0)
(-0.095622 -0.167847 0)
(-0.00794265 -0.179881 0)
(-0.143271 0.230741 0)
(-0.224162 0.303581 0)
(-0.331002 0.395386 0)
(-0.410409 0.45689 0)
(-0.490553 0.508008 0)
(-0.568983 0.55794 0)
(-0.650806 0.612207 0)
(-0.74506 0.670864 0)
(-0.792076 0.753598 0)
(-0.642288 0.827258 0)
(-0.63781 0.709283 0)
(-0.608508 0.551382 0)
(-0.693636 0.446428 0)
(-0.702014 0.475282 0)
(-0.679176 0.383966 0)
(-0.617373 0.28517 0)
(-0.512712 0.13552 0)
(-0.321464 -0.0601992 0)
(-0.182805 -0.192398 0)
(-0.113488 -0.222402 0)
(-0.0354124 -0.234478 0)
(0.0278276 -0.236818 0)
(0.0854156 -0.232874 0)
(-0.125183 0.389171 0)
(-0.191847 0.411223 0)
(-0.286651 0.476736 0)
(-0.35171 0.530913 0)
(-0.414596 0.576341 0)
(-0.474597 0.61312 0)
(-0.52448 0.647253 0)
(-0.460907 0.737208 0)
(-0.382394 0.73561 0)
(-0.506105 0.783861 0)
(-0.525169 0.640652 0)
(-0.51224 0.477361 0)
(-0.514693 0.500498 0)
(-0.496729 0.43083 0)
(-0.438376 0.327891 0)
(-0.359015 0.194423 0)
(-0.216146 -0.00115345 0)
(-0.0428951 -0.206256 0)
(-0.0146383 -0.259686 0)
(0.0358225 -0.28039 0)
(0.0770727 -0.286489 0)
(0.11458 -0.283107 0)
(0.151912 -0.273832 0)
(-0.106482 0.524465 0)
(-0.155163 0.499611 0)
(-0.231911 0.54321 0)
(-0.283112 0.586243 0)
(-0.337761 0.619176 0)
(-0.379571 0.626606 0)
(-0.0905192 0.552016 0)
(-0.252657 0.987831 0)
(-0.260849 0.802995 0)
(-0.35559 0.773446 0)
(-0.334956 0.661082 0)
(-0.349622 0.545178 0)
(-0.342377 0.47545 0)
(-0.283441 0.378847 0)
(-0.198963 0.248463 0)
(-0.0922534 0.0696974 0)
(0.0801176 -0.157457 0)
(0.102805 -0.247042 0)
(0.122674 -0.290175 0)
(0.143474 -0.310821 0)
(0.162245 -0.314869 0)
(0.179369 -0.308845 0)
(0.19722 -0.297138 0)
(-0.0835402 0.634241 0)
(-0.105926 0.564295 0)
(-0.161068 0.591564 0)
(-0.19677 0.62875 0)
(-0.239644 0.632841 0)
(0.0480022 0.449665 0)
(-0.0566228 0.630376 0)
(-0.216715 0.932089 0)
(-0.187305 0.780254 0)
(-0.212707 0.770181 0)
(-0.190284 0.651962 0)
(-0.181769 0.52496 0)
(-0.147745 0.428614 0)
(-0.0658926 0.297122 0)
(0.0351637 0.128205 0)
(0.160278 -0.0638268 0)
(0.202847 -0.187009 0)
(0.21564 -0.264822 0)
(0.219925 -0.305041 0)
(0.221179 -0.32161 0)
(0.221195 -0.323332 0)
(0.221306 -0.316355 0)
(0.223073 -0.30459 0)
(-0.0608008 0.707091 0)
(-0.0456031 0.602465 0)
(-0.0813201 0.621876 0)
(-0.0895029 0.640116 0)
(0.0561416 0.477712 0)
(0.12682 0.388809 0)
(-0.147666 0.761798 0)
(-0.138583 0.94255 0)
(-0.130898 0.847326 0)
(-0.130401 0.762957 0)
(-0.0839196 0.634766 0)
(-0.0353782 0.489033 0)
(0.0302922 0.352178 0)
(0.118622 0.198106 0)
(0.208412 0.0348261 0)
(0.271653 -0.108555 0)
(0.290935 -0.208474 0)
(0.291026 -0.26953 0)
(0.281608 -0.301887 0)
(0.268545 -0.315113 0)
(0.255178 -0.316257 0)
(0.243367 -0.310215 0)
(0.233838 -0.300182 0)
(-0.0451054 0.739759 0)
(0.0175297 0.613055 0)
(-0.0225452 0.628093 0)
(0.0676356 0.552446 0)
(0.326954 0.34157 0)
(-0.106461 0.614215 0)
(-0.144564 0.86392 0)
(-0.124253 0.905929 0)
(-0.0939271 0.817901 0)
(-0.0514574 0.719777 0)
(0.0174522 0.574979 0)
(0.0893968 0.418889 0)
(0.16782 0.269201 0)
(0.247477 0.116825 0)
(0.315763 -0.0279706 0)
(0.34107 -0.137334 0)
(0.343258 -0.2123 0)
(0.331571 -0.25948 0)
(0.312515 -0.285778 0)
(0.290989 -0.297395 0)
(0.27004 -0.299379 0)
(0.251341 -0.295417 0)
(0.234996 -0.287958 0)
(-0.0374457 0.737152 0)
(0.0658632 0.600024 0)
(0.0326537 0.57479 0)
(0.225536 0.382868 0)
(-0.00972932 0.600596 0)
(-0.157411 0.824909 0)
(-0.148441 0.877492 0)
(-0.129427 0.857005 0)
(-0.0594478 0.772094 0)
(0.0184375 0.645165 0)
(0.103858 0.492426 0)
(0.187029 0.337905 0)
(0.263487 0.191053 0)
(0.326651 0.0546555 0)
(0.363634 -0.0599713 0)
(0.371989 -0.144321 0)
(0.364105 -0.20272 0)
(0.345862 -0.24065 0)
(0.322252 -0.26301 0)
(0.297147 -0.274117 0)
(0.272935 -0.277552 0)
(0.251025 -0.275968 0)
(0.2311 -0.271226 0)
(-0.0403202 0.706772 0)
(0.0950431 0.549402 0)
(0.0756762 0.340524 0)
(0.174206 0.526823 0)
(-0.274801 0.788293 0)
(-0.107556 0.870951 0)
(-0.186747 0.835887 0)
(-0.100455 0.796361 0)
(-0.0138604 0.690788 0)
(0.0833302 0.550074 0)
(0.174754 0.402419 0)
(0.255759 0.25852 0)
(0.319864 0.127391 0)
(0.363617 0.0150653 0)
(0.380736 -0.0745261 0)
(0.379203 -0.140257 0)
(0.365785 -0.186767 0)
(0.344796 -0.218151 0)
(0.31998 -0.237864 0)
(0.294204 -0.248935 0)
(0.269287 -0.253852 0)
(0.246342 -0.254481 0)
(0.224943 -0.252201 0)
(-0.0606135 0.664128 0)
(0.118143 0.455234 0)
(-0.0739551 0.226442 0)
(-0.287443 0.731345 0)
(-0.16357 0.881262 0)
(-0.165604 0.804605 0)
(-0.149669 0.789495 0)
(-0.048739 0.714813 0)
(0.0473607 0.588707 0)
(0.144216 0.452362 0)
(0.229536 0.31746 0)
(0.298156 0.191622 0)
(0.346156 0.0821441 0)
(0.373514 -0.00728595 0)
(0.379974 -0.0776667 0)
(0.3733 -0.130175 0)
(0.357553 -0.168241 0)
(0.336051 -0.19488 0)
(0.311675 -0.212678 0)
(0.286604 -0.223811 0)
(0.262225 -0.229992 0)
(0.239518 -0.232503 0)
(0.217969 -0.232383 0)
(-0.0842437 0.622756 0)
(0.137785 0.471341 0)
(0.00258297 0.575619 0)
(-0.194266 0.854544 0)
(-0.112942 0.795117 0)
(-0.131237 0.769313 0)
(-0.0741707 0.725804 0)
(0.0231307 0.617208 0)
(0.112842 0.491565 0)
(0.197872 0.365891 0)
(0.268404 0.24718 0)
(0.320954 0.141334 0)
(0.354416 0.0524589 0)
(0.370268 -0.0187514 0)
(0.370944 -0.0749044 0)
(0.361451 -0.117473 0)
(0.344802 -0.149069 0)
(0.323677 -0.172052 0)
(0.300372 -0.188392 0)
(0.276582 -0.199621 0)
(0.253401 -0.206869 0)
(0.231597 -0.210992 0)
(0.210726 -0.212753 0)
(-0.101818 0.596424 0)
(0.154949 0.523369 0)
(-0.082969 0.737863 0)
(0.0253119 0.883134 0)
(-0.0787202 0.76884 0)
(-0.0358508 0.738081 0)
(0.0160008 0.64964 0)
(0.0982938 0.530788 0)
(0.173395 0.410811 0)
(0.240773 0.296736 0)
(0.294348 0.194012 0)
(0.332041 0.105898 0)
(0.35407 0.0338327 0)
(0.362139 -0.0233797 0)
(0.358696 -0.0685727 0)
(0.347144 -0.103344 0)
(0.330026 -0.129894 0)
(0.309559 -0.1501 0)
(0.287549 -0.165399 0)
(0.265286 -0.176795 0)
(0.243578 -0.184981 0)
(0.2231 -0.190501 0)
(0.203353 -0.193933 0)
(-0.103328 0.592133 0)
(0.181182 0.522212 0)
(0.105503 0.799192 0)
(0.129868 0.867679 0)
(0.021739 0.800638 0)
(0.0585524 0.704464 0)
(0.1005 0.587514 0)
(0.163832 0.463723 0)
(0.222165 0.348231 0)
(0.272524 0.244842 0)
(0.311111 0.15589 0)
(0.336621 0.0821888 0)
(0.349591 0.0233757 0)
(0.351614 -0.0227651 0)
(0.344699 -0.0593674 0)
(0.33149 -0.0881276 0)
(0.31417 -0.110926 0)
(0.294531 -0.129188 0)
(0.273927 -0.14386 0)
(0.25328 -0.155525 0)
(0.233195 -0.164565 0)
(0.214152 -0.171322 0)
(0.19573 -0.17622 0)
(-0.0936521 0.545261 0)
(0.215226 0.433512 0)
(0.397979 0.836167 0)
(0.151794 0.951472 0)
(0.0889284 0.823559 0)
(0.117764 0.675054 0)
(0.161723 0.538084 0)
(0.21228 0.411272 0)
(0.257148 0.300823 0)
(0.294126 0.207141 0)
(0.320786 0.129793 0)
(0.336472 0.0678207 0)
(0.341964 0.0195587 0)
(0.338961 -0.0178331 0)
(0.329205 -0.0478482 0)
(0.314839 -0.072208 0)
(0.297654 -0.092425 0)
(0.27902 -0.109464 0)
(0.259879 -0.123857 0)
(0.24086 -0.135874 0)
(0.222365 -0.145695 0)
(0.204828 -0.153533 0)
(0.187759 -0.159719 0)
(0.0120653 0.232534 0)
(0.13385 -0.0584178 0)
(-0.0850694 0.94265 0)
(0.0995871 0.997232 0)
(0.0754213 0.793689 0)
(0.144393 0.633012 0)
(0.198557 0.490962 0)
(0.242839 0.367308 0)
(0.279148 0.264291 0)
(0.3065 0.180213 0)
(0.323888 0.113191 0)
(0.331625 0.0611001 0)
(0.33102 0.0212665 0)
(0.32398 -0.00948009 0)
(0.312267 -0.034703 0)
(0.297397 -0.0560756 0)
(0.280743 -0.074675 0)
(0.263272 -0.0910474 0)
(0.245607 -0.105403 0)
(0.228154 -0.117813 0)
(0.211208 -0.128339 0)
(0.195055 -0.13712 0)
(0.179278 -0.144415 0)
(0.0216493 0.24418 0)
(0.123332 0.316277 0)
(-0.322609 0.943041 0)
(0.107182 0.885179 0)
(0.0528283 0.722194 0)
(0.163441 0.576223 0)
(0.218908 0.442221 0)
(0.259869 0.328347 0)
(0.290447 0.235439 0)
(0.310476 0.161506 0)
(0.320489 0.104181 0)
(0.321909 0.0605567 0)
(0.316678 0.0273112 0)
(0.306797 0.00124436 0)
(0.294116 -0.0207629 0)
(0.279395 -0.0402618 0)
(0.26362 -0.0579382 0)
(0.247419 -0.0740032 0)
(0.231196 -0.0884587 0)
(0.215222 -0.10126 0)
(0.199682 -0.112409 0)
(0.18487 -0.121998 0)
(0.170272 -0.130245 0)
(-0.04534 0.165372 0)
(-0.00259377 0.513416 0)
(-0.201773 0.902806 0)
(0.0834673 0.738923 0)
(0.0737085 0.642949 0)
(0.176315 0.512931 0)
(0.229803 0.393762 0)
(0.267718 0.293592 0)
(0.293107 0.212698 0)
(0.306882 0.149454 0)
(0.310949 0.101238 0)
(0.307662 0.0646822 0)
(0.299367 0.0363216 0)
(0.288022 0.0132217 0)
(0.275006 -0.00679598 0)
(0.261058 -0.0252209 0)
(0.246425 -0.0424026 0)
(0.231542 -0.0583478 0)
(0.216693 -0.0729485 0)
(0.202079 -0.0861059 0)
(0.18786 -0.0977916 0)
(0.174211 -0.108069 0)
(0.160693 -0.117108 0)
(-0.0867606 0.32504 0)
(-0.110123 0.578793 0)
(-0.130645 0.802915 0)
(0.0710909 0.638064 0)
(0.0999219 0.561302 0)
(0.185795 0.449647 0)
(0.235677 0.348442 0)
(0.268998 0.263705 0)
(0.288583 0.195759 0)
(0.296656 0.143118 0)
(0.29609 0.10296 0)
(0.289707 0.0719156 0)
(0.279844 0.0468966 0)
(0.268146 0.0255748 0)
(0.255525 0.00649591 0)
(0.242569 -0.011277 0)
(0.229235 -0.0281564 0)
(0.215672 -0.0440481 0)
(0.202116 -0.0587827 0)
(0.188755 -0.0722395 0)
(0.175701 -0.0843713 0)
(0.16317 -0.0952181 0)
(0.150638 -0.104914 0)
(-0.0631917 0.352603 0)
(-0.0904747 0.553916 0)
(-0.0470831 0.684576 0)
(0.0844461 0.554687 0)
(0.130317 0.484057 0)
(0.19634 0.392443 0)
(0.238355 0.309541 0)
(0.264554 0.240197 0)
(0.277738 0.184752 0)
(0.280867 0.141565 0)
(0.277104 0.107867 0)
(0.269158 0.0807527 0)
(0.258974 0.0578429 0)
(0.247735 0.0375187 0)
(0.236043 0.0188424 0)
(0.224082 0.00141498 0)
(0.212107 -0.0152255 0)
(0.199826 -0.0310344 0)
(0.187486 -0.045853 0)
(0.175268 -0.0595412 0)
(0.163307 -0.0720354 0)
(0.151729 -0.0833478 0)
(0.140097 -0.0935814 0)
(-0.0388629 0.42488 0)
(-0.0510795 0.546197 0)
(0.0156739 0.590053 0)
(0.105882 0.490185 0)
(0.154409 0.421565 0)
(0.203696 0.346524 0)
(0.235693 0.279647 0)
(0.253931 0.223965 0)
(0.261284 0.179186 0)
(0.260813 0.143476 0)
(0.255377 0.11445 0)
(0.247149 0.0899252 0)
(0.237519 0.0682939 0)
(0.227243 0.0485452 0)
(0.21667 0.0301274 0)
(0.205915 0.0127889 0)
(0.195005 -0.00355846 0)
(0.184032 -0.0192346 0)
(0.172825 -0.0340626 0)
(0.161659 -0.0479098 0)
(0.150663 -0.0606898 0)
(0.140017 -0.0723789 0)
(0.129187 -0.0830512 0)
(-0.0188298 0.457923 0)
(-0.00936928 0.520327 0)
(0.0570245 0.512807 0)
(0.12327 0.436442 0)
(0.167061 0.373697 0)
(0.20324 0.312385 0)
(0.225816 0.258846 0)
(0.237283 0.214239 0)
(0.240453 0.177623 0)
(0.238039 0.147268 0)
(0.23226 0.121386 0)
(0.224635 0.0985353 0)
(0.216053 0.0777384 0)
(0.206967 0.0584105 0)
(0.197581 0.0402351 0)
(0.18798 0.0230573 0)
(0.178164 0.00683297 0)
(0.168273 -0.00857759 0)
(0.158165 -0.0233369 0)
(0.147966 -0.0372661 0)
(0.137875 -0.0502507 0)
(0.128011 -0.0622387 0)
(0.117925 -0.0732506 0)
(-0.00157166 0.457689 0)
(0.0240618 0.479272 0)
(0.0820561 0.450157 0)
(0.132471 0.390843 0)
(0.168098 0.337483 0)
(0.193998 0.288134 0)
(0.209225 0.245329 0)
(0.216071 0.209062 0)
(0.216991 0.178238 0)
(0.214077 0.151526 0)
(0.208858 0.12776 0)
(0.202301 0.106088 0)
(0.194953 0.0859627 0)
(0.187093 0.0670566 0)
(0.178863 0.0491837 0)
(0.170339 0.0322415 0)
(0.161576 0.0161764 0)
(0.15256 0.00100517 0)
(0.143529 -0.0135919 0)
(0.13423 -0.0275178 0)
(0.124937 -0.0406366 0)
(0.115851 -0.0528453 0)
(0.10645 -0.0641163 0)
(0.0118144 0.43616 0)
(0.0446759 0.435087 0)
(0.0931089 0.40092 0)
(0.131709 0.354176 0)
(0.159124 0.310746 0)
(0.177607 0.271291 0)
(0.18803 0.236619 0)
(0.192413 0.206307 0)
(0.192639 0.179487 0)
(0.19015 0.155308 0)
(0.185926 0.133103 0)
(0.180574 0.112415 0)
(0.174442 0.0929538 0)
(0.167733 0.0745361 0)
(0.160569 0.0570476 0)
(0.153036 0.0404155 0)
(0.145204 0.0245934 0)
(0.137114 0.00955931 0)
(0.128859 -0.0047336 0)
(0.120469 -0.0185879 0)
(0.111943 -0.0317707 0)
(0.103505 -0.0441371 0)
(0.0947443 -0.0555955 0)
(0.0192072 0.402874 0)
(0.0525827 0.393822 0)
(0.0923011 0.362478 0)
(0.122089 0.325708 0)
(0.143129 0.291003 0)
(0.156931 0.259188 0)
(0.164784 0.230434 0)
(0.168274 0.204354 0)
(0.168715 0.180421 0)
(0.167049 0.158179 0)
(0.163903 0.137299 0)
(0.15968 0.11756 0)
(0.154637 0.0988142 0)
(0.148945 0.080962 0)
(0.142728 0.0639323 0)
(0.13608 0.0476732 0)
(0.129085 0.0321467 0)
(0.121818 0.0173258 0)
(0.114275 0.00322698 0)
(0.106712 -0.0104182 0)
(0.0988735 -0.0235898 0)
(0.0910889 -0.0360587 0)
(0.0829075 -0.047659 0)
(0.0206474 0.366256 0)
(0.0511499 0.35775 0)
(0.0834542 0.332066 0)
(0.106963 0.303384 0)
(0.123728 0.275701 0)
(0.134897 0.249628 0)
(0.141618 0.22523 0)
(0.145031 0.202318 0)
(0.146017 0.180663 0)
(0.145195 0.160082 0)
(0.142998 0.140449 0)
(0.139724 0.121677 0)
(0.135588 0.103703 0)
(0.130753 0.0864771 0)
(0.125345 0.0699601 0)
(0.119468 0.0541192 0)
(0.113211 0.0389271 0)
(0.106654 0.0243608 0)
(0.0998477 0.0104052 0)
(0.09285 -0.00294895 0)
(0.0857686 -0.0160517 0)
(0.0785346 -0.0285722 0)
(0.0709067 -0.0402572 0)
(0.0182273 0.332608 0)
(0.0445986 0.327497 0)
(0.0708214 0.30756 0)
(0.0899458 0.28526 0)
(0.103945 0.26302 0)
(0.113627 0.241314 0)
(0.119857 0.220278 0)
(0.12342 0.199923 0)
(0.124908 0.180226 0)
(0.124754 0.161174 0)
(0.12328 0.142758 0)
(0.120734 0.12497 0)
(0.117309 0.1078 0)
(0.11316 0.0912353 0)
(0.108417 0.0752609 0)
(0.103188 0.0598627 0)
(0.0975647 0.0450262 0)
(0.0916298 0.0307374 0)
(0.0854538 0.0169841 0)
(0.0790287 0.00379118 0)
(0.0725969 -0.00909192 0)
(0.0659342 -0.021613 0)
(0.0588256 -0.0333548 0)
(0.014501 0.304629 0)
(0.0365048 0.302679 0)
(0.0577295 0.287489 0)
(0.0736078 0.270084 0)
(0.0856053 0.252029 0)
(0.0942335 0.233733 0)
(0.100091 0.215425 0)
(0.103704 0.197247 0)
(0.105482 0.17931 0)
(0.105744 0.161695 0)
(0.104748 0.144463 0)
(0.102706 0.127654 0)
(0.0997948 0.111295 0)
(0.096163 0.0953995 0)
(0.0919379 0.0799753 0)
(0.0872289 0.0650251 0)
(0.0821307 0.0505483 0)
(0.0767254 0.0365424 0)
(0.0710846 0.0230022 0)
(0.0652434 0.00992543 0)
(0.0592535 -0.00270948 0)
(0.0531554 -0.0151934 0)
(0.0465695 -0.0269426 0)
(0.0110548 0.282472 0)
(0.0289353 0.282625 0)
(0.0459753 0.270984 0)
(0.0591746 0.257245 0)
(0.0694412 0.242407 0)
(0.0770664 0.226831 0)
(0.0824295 0.210794 0)
(0.0858757 0.194516 0)
(0.0876912 0.178174 0)