/*--------------------------------*- C++ -*----------------------------------*\
| =========                 |                                                 |
| \\      /  F ield         | OpenFOAM: The Open Source CFD Toolbox           |
|  \\    /   O peration     | Version:  2312                                  |
|   \\  /    A nd           | Website:  www.openfoam.com                      |
|    \\/     M anipulation  |                                                 |
\*---------------------------------------------------------------------------*/
FoamFile
{
    version     2.0;
    format      ascii;
    arch        "LSB;label=32;scalar=64";
    class       volScalarField;
    location    "1.65";
    object      alpha.oil;
}
// * * * * * * * * * * * * * * * * * * * * * * * * * * * * * * * * * * * * * //

dimensions      [0 0 0 0 0 0 0];

internalField   nonuniform List<scalar> 
2268
(
4.93794e-10
1.50848e-10
2.85193e-11
4.67527e-12
1.06539e-12
3.75071e-13
3.18479e-13
8.23033e-13
5.08079e-12
1.58233e-11
2.07609e-11
2.79898e-11
2.8853e-11
2.63568e-11
2.73996e-11
3.9921e-11
6.00124e-11
9.82569e-11
1.59874e-10
1.87144e-10
4.92722e-10
9.13505e-06
6.43505e-05
1.39741e-09
4.87159e-10
8.39802e-11
1.38332e-11
5.36416e-12
3.72726e-12
2.61236e-12
1.41506e-11
8.65827e-11
2.10786e-10
3.0075e-10
4.78845e-10
4.44022e-10
2.36003e-10
1.17991e-10
9.48057e-11
1.3131e-10
2.56147e-10
4.74483e-10
4.38287e-10
1.81817e-09
5.42162e-06
6.43505e-05
1.42017e-09
5.68385e-10
7.02707e-11
2.18758e-11
1.36044e-11
2.03806e-11
6.84879e-12
8.01683e-11
4.11748e-10
8.6186e-10
1.66247e-09
2.09493e-09
2.03395e-09
1.71854e-09
5.64652e-10
1.97075e-10
1.65631e-10
2.58995e-10
4.25757e-10
4.43891e-10
4.44246e-10
2.75115e-06
3.46856e-05
6.2007e-10
2.72443e-10
3.60787e-11
1.36968e-11
1.26787e-11
3.57004e-12
3.59385e-12
3.78546e-12
3.86494e-11
1.29439e-10
2.05322e-11
1.54259e-11
2.85422e-10
2.02365e-09
1.02593e-09
2.46683e-10
2.28169e-10
6.19583e-10
3.42364e-10
3.42369e-10
7.30565e-10
2.80697e-08
2.57127e-07
1.20145e-11
1.20145e-11
1.20145e-11
1.20145e-11
1.20145e-11
4.05554e-07
1.75532e-07
1.74757e-06
1.00593e-10
3.35985e-11
7.19564e-05
0.000110309
3.02716e-05
4.51107e-14
-1.34152e-12
-2.90544e-13
-2.0137e-13
3.88026e-09
4.50319e-10
6.90227e-09
3.71102e-10
3.71102e-10
2.49863e-07
0.179429
0.199764
0.137493
0.0264939
1.1099e-05
1.96723e-06
1.10306e-06
8.6961e-07
4.04524e-05
0.000985705
0.00147669
0.00124633
0.000543755
0.000188216
4.18378e-05
7.1726e-06
2.13319e-07
1.38396e-10
3.43372e-10
9.97612e-07
3.71102e-10
9.33617e-07
2.62662e-07
0.938197
0.927573
0.669576
0.179376
0.0318028
4.11985e-10
2.54631e-05
0.000616384
0.00165595
0.00165625
0.00147316
0.000549104
0.000546909
0.000710825
0.000710841
0.000269185
5.34553e-05
8.18137e-06
7.02538e-05
0.000160618
6.20201e-05
5.05681e-06
2.62598e-07
0.999862
0.999942
0.964606
0.939122
0.628557
6.78728e-14
7.07042e-14
4.56062e-05
0.000635468
0.000837487
0.000735061
0.000688181
0.000774542
0.000601329
0.000391526
0.000176569
2.81683e-05
4.37741e-05
0.000252728
0.000245808
0.000175333
2.62598e-07
2.62587e-07
0.0994374
0.0623745
0.0623745
0.0676044
0.0874493
0.0865974
0.0662505
0.0593407
0.0483617
0.0338693
0.0291212
0.0222902
0.0208011
0.0208011
0.0208011
0.0208027
0.0208058
0.0251432
0.03882
0.49562
0.379855
0.382179
0.303724
0.101769
0.096013
0.251315
0.290105
0.235833
0.155403
0.182841
0.193049
0.231612
0.154357
0.0542807
0.0328915
0.0529997
0.0817469
0.0949643
0.712106
0.712437
0.707011
0.697509
0.432903
0.155976
0.193373
0.217072
0.217095
0.241547
0.351972
0.461942
0.571293
0.571277
0.486644
0.243335
0.223089
0.294753
0.360905
0.614274
0.698636
0.563572
0.534538
0.708794
0.632564
0.46253
0.479114
0.370696
0.248848
0.252835
0.494967
0.571234
0.571292
0.571237
0.571243
0.320701
0.102965
0.346694
0.232074
0.166614
0.0961537
0.212732
0.715834
0.716117
0.715294
0.632728
0.525499
0.459888
0.421918
0.494405
0.571235
0.571225
0.571238
0.571187
0.217418
0.0933534
0.306022
0.0716703
0.000246351
3.76706e-05
0.0509939
0.487931
0.712367
0.720029
0.527222
0.228177
0.239209
0.241131
0.275462
0.438599
0.527121
0.570935
0.513669
0.096279
0.0886566
0.117757
0.0225076
0.00749516
0.000879562
0.0311604
0.140962
0.494897
0.602278
0.513798
0.225453
0.0822606
0.0198548
0.000418458
0.140023
0.476383
0.424079
0.133403
0.089973
0.0886563
0.0928879
0.000313207
1.89887e-05
5.79978e-23
1.15711e-11
0.00313561
0.0483138
0.128752
0.278507
0.284061
0.283845
0.0975796
0.000431756
1.06747e-08
0.440815
0.493194
0.121906
0.170489
0.0890507
0.0902393
0.998381
0.999943
0.999896
0.999835
0.998553
0.702502
0.167879
3.49693e-15
1.27669e-21
3.49693e-15
0.000499014
0.00159081
0.00150616
0.000134865
6.25394e-05
6.20457e-05
6.15662e-05
1.5783e-06
1.56718e-06
7.75517e-05
0.00158086
0.0107215
0.0215276
0.966858
0.819027
0.931327
0.992998
0.9929
0.992607
0.903753
0.756731
0.493446
0.286593
0.0458826
0.00155499
0.00154185
0.0309772
0.0617743
0.0408045
1.57806e-06
1.56693e-06
0.00859397
0.00471173
0.0177885
0.066558
0.122533
0.930287
0.509926
0.799502
0.977198
0.919985
0.821713
0.799089
0.797
0.834434
0.899757
0.816453
0.517864
0.131344
0.0309796
0.0674524
0.24061
0.127769
0.0801775
0.238015
0.422357
0.585404
0.751343
0.85382
0.925466
0.509576
0.509927
0.842326
0.99997
0.942338
0.975762
0.999642
0.997071
0.997184
0.99728
0.990276
0.875881
0.735453
0.365184
0.253584
0.287937
0.255617
0.37143
0.759432
0.885328
0.908084
0.937919
0.997435
0.722863
0.509513
0.833377
0.99997
0.99997
0.999943
0.999637
0.987102
0.974319
0.998668
0.998679
0.998296
0.981932
0.941997
0.869397
0.704032
0.580046
0.582597
0.60869
0.391905
0.281024
0.294925
0.999961
0.969542
0.758997
0.985423
0.99997
0.999967
0.968762
0.736072
0.496218
0.606777
0.812921
0.998676
0.998865
0.998233
0.995295
0.993307
0.993061
0.992808
0.974695
0.909667
0.650042
0.176283
0.0616885
0.999961
0.999969
0.999969
0.999968
0.985272
0.812333
0.391741
0.148669
0.163572
0.541575
0.714485
0.758436
0.925342
0.980058
0.989829
0.989757
0.982181
0.983154
0.979084
0.964301
0.770478
0.447953
0.263129
0.887904
0.898395
0.860548
0.705549
0.478225
0.235903
0.0226806
0.00199083
0.0833859
0.134514
0.272362
0.456974
0.509711
0.538339
0.621067
0.705859
0.677977
0.57924
0.445578
0.308809
0.327131
0.386046
0.35463
0.308243
0.282802
0.204619
0.095726
0.029026
2.57117e-09
7.87296e-09
2.22253e-06
8.8731e-07
1.12499e-06
1.13323e-06
0.0445049
0.120185
0.136608
0.114974
0.0902647
0.0548765
0.00638626
4.18551e-14
7.87836e-26
-1.06966e-08
0.00531637
9.39324e-07
7.92733e-08
8.03172e-08
1.31696e-07
3.15496e-08
2.95582e-08
2.77416e-08
6.7489e-07
2.62185e-06
0.000158736
0.000396786
0.000152
3.53768e-06
2.824e-16
2.49974e-16
3.10836e-16
1.10193e-16
1.00869e-16
7.76315e-17
1.37973e-10
7.5379e-08
1.5899e-07
2.35901e-07
1.10027e-06
7.75728e-07
1.00546e-06
2.16446e-06
1.17125e-06
3.59394e-08
5.79302e-08
1.76238e-07
1.64394e-07
0.000670623
0.000963815
0.000956596
0.000236007
3.49869e-07
1.00093e-07
5.34949e-08
2.48832e-08
2.87382e-09
2.77655e-10
3.06901e-08
6.75391e-07
1.73126e-06
8.95209e-06
1.54122e-05
2.73083e-06
5.99585e-06
7.56965e-06
4.84887e-06
1.13844e-07
5.87639e-08
7.19201e-08
3.6185e-07
7.57773e-08
0.000335746
0.000748031
0.000259076
1.78425e-07
1.80054e-07
1.65498e-07
6.36947e-08
6.8263e-09
3.49895e-09
1.57127e-07
3.18728e-06
5.47521e-06
1.67879e-05
1.63443e-05
8.55143e-06
8.58803e-06
7.55687e-06
1.84185e-06
1.68041e-07
9.44667e-08
1.11341e-07
7.72581e-08
7.55108e-08
7.54708e-08
7.5383e-08
2.27272e-07
4.14013e-07
4.15598e-07
2.12851e-07
1.32364e-08
7.24467e-09
3.54136e-08
4.82562e-07
2.42699e-06
1.54736e-06
6.84297e-09
6.96038e-10
3.43854e-09
3.42079e-09
3.44711e-09
1.61829e-07
7.81221e-07
8.0535e-07
4.41162e-07
1.64492e-07
1.16442e-07
1.213e-07
1.90359e-07
3.62133e-07
3.58307e-07
1.27831e-07
1.01403e-09
2.93841e-09
8.07344e-09
5.38146e-08
1.169e-07
2.8223e-09
2.8017e-09
6.88976e-09
7.42711e-10
3.42563e-09
1.85766e-08
1.97873e-07
1.14859e-06
1.12166e-06
9.13364e-07
1.54774e-07
3.31084e-07
3.31339e-07
1.81537e-07
4.9606e-08
1.51489e-07
8.97503e-10
9.06685e-10
1.03657e-09
3.43215e-09
5.70996e-09
3.21785e-09
2.88335e-09
3.06088e-09
4.46122e-09
6.03774e-09
7.49396e-09
3.53598e-09
4.03107e-08
5.02554e-07
1.11465e-06
4.5332e-07
6.43712e-09
1.54213e-09
1.5741e-09
1.40177e-09
1.35703e-09
1.07071e-09
1.00355e-09
9.69794e-10
9.72498e-10
1.53968e-09
2.51914e-09
3.44961e-09
3.14524e-09
2.94368e-09
4.37199e-09
5.74485e-09
9.84388e-09
1.19168e-08
9.12828e-09
4.03385e-08
4.78304e-08
2.15961e-09
3.60953e-09
3.68681e-09
3.53451e-09
3.08807e-09
2.75997e-09
2.3104e-09
1.36874e-09
1.12303e-09
1.00431e-09
1.00729e-09
1.10091e-09
1.27575e-09
1.51432e-09
1.88563e-09
2.74402e-09
4.74109e-09
7.22013e-09
1.02041e-08
1.94533e-08
7.22106e-08
1.35796e-09
1.48172e-09
2.27594e-09
4.85769e-09
5.83399e-09
4.58582e-09
3.30786e-09
2.50621e-09
2.10789e-09
1.69186e-09
1.22619e-09
8.78617e-10
6.65589e-10
5.99759e-10
6.44993e-10
8.74996e-10
1.47517e-09
2.49778e-09
4.50982e-09
6.93682e-09
1.47242e-08
2.62472e-08
1.08767e-07
1.42994e-09
4.40431e-09
8.11108e-09
8.99967e-09
8.33716e-09
5.74306e-09
3.45316e-09
2.73017e-09
2.24078e-09
1.71505e-09
1.12945e-09
7.2317e-10
4.9139e-10
3.91588e-10
4.18266e-10
6.27523e-10
1.04007e-09
2.14442e-09
3.89267e-09
6.70254e-09
9.78973e-09
3.3504e-08
1.34586e-07
1.41034e-09
7.00431e-09
1.24845e-08
1.22746e-08
8.10663e-09
4.89446e-09
2.92583e-09
2.58276e-09
2.22588e-09
1.60063e-09
1.01478e-09
6.16062e-10
3.78886e-10
2.70455e-10
2.64517e-10
3.97352e-10
7.17871e-10
1.41894e-09
2.94119e-09
6.11476e-09
1.23536e-08
1.94682e-08
1.94325e-07
1.91716e-09
8.35525e-09
1.61951e-08
1.65055e-08
8.15232e-09
3.85531e-09
2.47944e-09
2.50926e-09
2.24803e-09
1.54431e-09
9.12843e-10
5.2038e-10
2.95751e-10
1.85102e-10
1.5918e-10
2.14575e-10
3.74016e-10
7.16701e-10
1.35571e-09
2.33312e-09
3.19593e-09
8.63884e-09
1.84611e-07
2.46379e-09
7.74619e-09
2.6513e-08
6.14485e-08
8.81152e-08
7.09772e-09
2.47749e-09
2.47484e-09
2.37281e-09
1.50376e-09
8.25525e-10
4.43555e-10
2.33576e-10
1.29041e-10
9.20747e-11
1.03337e-10
1.64636e-10
3.04628e-10
6.04706e-10
1.18187e-09
1.99934e-09
2.94007e-09
1.21368e-07
1.91173e-09
1.09066e-08
3.6261e-08
2.6802e-07
3.23574e-07
7.05781e-08
2.47998e-09
2.52664e-09
2.55694e-09
1.46425e-09
7.5279e-10
3.7713e-10
1.86732e-10
9.25041e-11
5.44501e-11
4.8532e-11
6.89657e-11
1.17936e-10
2.08814e-10
3.47243e-10
5.00741e-10
1.344e-09
5.59253e-07
1.59284e-09
1.25489e-08
7.44596e-08
3.26766e-07
3.38644e-07
1.68126e-07
2.48865e-09
3.04829e-09
2.77003e-09
1.39753e-09
6.73082e-10
3.21447e-10
1.47987e-10
6.76363e-11
3.42743e-11
2.36214e-11
2.65335e-11
4.03923e-11
7.11305e-11
1.50722e-10
2.84554e-10
4.70592e-10
7.86202e-07
1.59546e-09
8.35962e-09
7.51795e-08
3.25934e-07
3.39192e-07
1.08473e-07
2.47739e-09
3.81644e-09
2.88592e-09
1.3173e-09
5.92847e-10
2.63979e-10
1.16187e-10
5.0384e-11
2.23532e-11
1.23844e-11
1.06412e-11
1.40652e-11
2.32578e-11
4.04268e-11
6.37111e-11
1.4586e-10
5.81151e-07
5.194e-09
3.86556e-09
6.40644e-08
2.48258e-07
3.44918e-07
6.04209e-08
2.47769e-09
4.65896e-09
2.89644e-09
1.21213e-09
5.08567e-10
2.14477e-10
8.85816e-11
3.74064e-11
1.53767e-11
7.04964e-12
4.53864e-12
4.9026e-12
7.24998e-12
1.25351e-11
2.39068e-11
3.9775e-11
6.17135e-07
5.14701e-09
7.47006e-07
7.64053e-08
2.17885e-07
3.55065e-07
6.057e-08
2.47775e-09
5.32377e-09
2.78462e-09
1.09548e-09
4.33022e-10
1.72765e-10
6.81725e-11
2.65282e-11
1.06363e-11
4.38047e-12
2.2472e-12
1.81499e-12
2.19426e-12
3.208e-12
4.89578e-12
1.03834e-11
6.24368e-06
5.08944e-06
2.98418e-06
4.14234e-08
1.25621e-07
3.68299e-07
4.90765e-08
1.02332e-08
5.83959e-09
2.67186e-09
1.01296e-09
3.67647e-10
1.37299e-10
5.06414e-11
1.89567e-11
7.13484e-12
2.67563e-12
1.16714e-12
7.15568e-13
7.15207e-13
9.36597e-13
1.59457e-12
2.73241e-12
2.6002e-05
1.76675e-05
3.94969e-06
4.04628e-08
1.45629e-07
3.74963e-07
6.87444e-08
1.238e-08
6.43545e-09
2.59853e-09
9.49224e-10
3.10275e-10
1.06109e-10
3.74777e-11
1.31813e-11
4.63926e-12
1.63817e-12
6.10284e-13
2.98634e-13
2.43429e-13
2.75749e-13
3.93924e-13
8.2568e-13
2.59765e-05
1.26214e-05
3.18305e-06
1.13779e-07
3.10976e-07
3.75013e-07
9.82111e-08
6.56627e-09
6.40215e-09
2.50321e-09
9.17631e-10
2.71227e-10
8.06847e-11
2.65248e-11
8.851e-12
2.88247e-12
9.58096e-13
3.22511e-13
1.33581e-13
8.33259e-14
8.44863e-14
1.37991e-13
2.80392e-13
2.52756e-05
3.55585e-06
4.88081e-07
1.87398e-07
3.53943e-07
3.58712e-07
4.40695e-08
6.61477e-09
7.75173e-09
2.1517e-09
8.9512e-10
2.58718e-10
6.32722e-11
1.8054e-11
5.58317e-12
1.73709e-12
5.24005e-13
1.64483e-13
5.85785e-14
3.01608e-14
2.86722e-14
4.15589e-14
1.14507e-13
2.82725e-05
1.81646e-06
4.70615e-08
2.43448e-07
3.54017e-07
1.5833e-07
4.37156e-08
8.1491e-08
1.26854e-08
1.06799e-09
7.55705e-10
2.67815e-10
5.73743e-11
1.22801e-11
3.30167e-12
9.6383e-13
2.69848e-13
7.39806e-14
2.33341e-14
1.09889e-14
8.59964e-15
1.50502e-14
4.42723e-14
2.95837e-05
2.26088e-06
3.28373e-08
1.13426e-07
1.51023e-07
1.04621e-07
6.24624e-07
3.83198e-07
3.50753e-09
7.93754e-10
6.54927e-10
2.53501e-10
5.85456e-11
9.87742e-12
1.96354e-12
4.9984e-13
1.23416e-13
3.13271e-14
9.15666e-15
3.62826e-15
2.88886e-15
4.22164e-15
1.74459e-14
2.95837e-05
5.23493e-07
2.94662e-08
3.06221e-08
3.05103e-08
8.43847e-07
1.15261e-06
5.36594e-07
4.97972e-09
7.33344e-10
5.29839e-10
2.20439e-10
5.64559e-11
9.50437e-12
1.32131e-12
2.48626e-13
5.71842e-14
1.22458e-14
3.28497e-15
1.37938e-15
8.45338e-16
1.47825e-15
5.75339e-15
2.95515e-05
2.97252e-06
4.01934e-08
2.79457e-08
1.03408e-07
1.09704e-06
1.10567e-06
1.33381e-07
5.67054e-09
8.83585e-10
4.31087e-10
1.74003e-10
4.84208e-11
9.07673e-12
1.16275e-12
1.39307e-13
2.44217e-14
5.00681e-15
1.21222e-15
4.31777e-16
2.78138e-16
3.12609e-16
1.63215e-15
1.68768e-05
3.95117e-05
1.8328e-05
2.77358e-08
1.50167e-06
5.70098e-07
1.55208e-08
1.77289e-09
9.47289e-10
6.29489e-10
3.22603e-10
1.24425e-10
3.57728e-11
7.41334e-12
1.04831e-12
1.04403e-13
1.17111e-14
1.95082e-15
4.42642e-16
1.59148e-16
8.17999e-17
9.98936e-17
4.35244e-16
3.00977e-07
4.0733e-05
4.07292e-05
3.95133e-05
1.21409e-05
1.76899e-08
2.60271e-09
1.1041e-09
7.41852e-10
4.35834e-10
2.03794e-10
7.52718e-11
2.17625e-11
4.81286e-12
7.72604e-13
8.42425e-14
6.92067e-15
7.60398e-16
1.55075e-16
4.97808e-17
2.45881e-17
1.92233e-17
9.97047e-17
7.50548e-09
1.23442e-05
3.39286e-05
2.83778e-05
5.50848e-06
1.79752e-08
2.75119e-09
1.04e-09
5.47472e-10
2.6668e-10
1.09319e-10
3.71788e-11
1.03457e-11
2.33121e-12
4.12067e-13
5.36512e-14
4.82077e-15
3.53264e-16
5.18141e-17
1.64807e-17
6.9807e-18
4.59246e-18
1.60403e-17
7.50576e-09
1.84335e-08
1.95295e-06
6.71955e-07
3.54036e-08
2.87382e-09
9.89141e-10
5.79688e-10
2.88592e-10
1.19236e-10
4.14647e-11
1.26541e-11
3.35303e-12
7.62471e-13
1.45137e-13
2.26414e-14
2.62709e-15
2.18068e-16
2.09206e-17
5.54415e-18
2.02486e-18
9.10863e-19
2.47089e-18
3.90984e-09
5.75357e-09
1.15097e-08
1.01506e-08
2.87649e-09
1.33847e-09
5.94014e-10
2.5002e-10
9.77783e-11
3.36795e-11
1.01219e-11
2.74456e-12
6.76191e-13
1.54533e-13
3.21651e-14
5.89674e-15
9.08918e-16
1.08825e-16
1.07925e-17
2.07015e-18
6.331e-19
2.0431e-19
2.64412e-19
1.34719e-09
2.85935e-09
2.59559e-09
1.71754e-09
8.51234e-10
3.86442e-10
1.5991e-10
5.85109e-11
1.88544e-11
5.34547e-12
1.38171e-12
3.37701e-13
8.06524e-14
1.901e-14
4.25749e-15
8.9784e-16
1.72679e-16
2.91791e-17
4.59853e-18
8.86483e-19
2.16482e-19
5.52044e-20
2.49586e-20
3.13716e-10
5.66221e-10
4.96346e-10
2.60232e-10
1.21335e-10
4.8864e-11
1.61507e-11
4.6817e-12
1.26493e-12
3.2137e-13
7.91134e-14
1.91146e-14
4.64979e-15
1.12472e-15
2.81783e-16
6.61565e-17
1.43619e-17
3.06275e-18
7.09363e-19
2.07429e-19
6.84955e-20
1.88292e-20
3.84526e-21
0.0155933
0.014135
0.0146055
0.017576
0.123637
0.122508
0.126462
0.136184
0.863578
0.865976
0.87383
0.890755
0.97589
0.992201
0.993478
0.993462
0.377894
0.541228
0.740152
0.918662
0.0495915
0.0190621
0.0034191
0.140615
0.0950853
0.0174396
0.00548703
6.41828e-05
0.182572
0.00573449
1.58827e-05
4.42516e-06
8.59557e-07
8.79321e-06
2.12595e-05
2.48214e-05
6.23936e-06
2.37114e-05
5.28627e-05
0.000106552
7.39111e-05
9.93077e-05
9.98656e-05
5.05404e-05
1.17514e-09
1.39899e-09
1.53226e-07
6.14938e-06
1.22863e-07
1.2291e-05
1.81161e-05
1.82621e-05
7.00238e-10
3.38179e-05
8.71063e-05
0.000155715
7.30913e-09
4.02678e-05
0.000240219
0.000240204
6.17244e-08
2.32281e-05
0.000205249
0.000240219
2.25785e-08
2.18005e-08
7.10905e-06
0.000125248
4.42542e-08
3.9753e-08
3.29928e-08
1.55517e-07
3.98362e-08
3.48663e-08
2.85679e-08
2.31868e-08
3.79072e-08
3.35374e-08
1.51268e-08
2.06471e-08
9.95322e-09
8.89485e-09
1.42921e-08
1.2751e-08
4.83517e-09
5.32549e-09
5.86882e-09
7.86761e-09
1.94005e-09
2.30254e-09
3.64985e-09
3.97018e-09
7.83788e-10
9.57844e-10
1.15564e-09
1.54279e-09
2.1447e-10
2.70258e-10
4.406e-10
5.23381e-10
6.93056e-11
8.94403e-11
1.21333e-10
1.74013e-10
1.63103e-11
2.23637e-11
3.88447e-11
5.06705e-11
5.08332e-12
7.28631e-12
1.07913e-11
1.70105e-11
1.54366e-12
2.44542e-12
4.54556e-12
6.87152e-12
7.09628e-13
1.30867e-12
2.28968e-12
4.19235e-12
3.23208e-13
6.30065e-13
1.42164e-12
2.54046e-12
1.57681e-13
3.74667e-13
7.74371e-13
1.63064e-12
6.46179e-14
1.57297e-13
4.47927e-13
8.37869e-13
2.70077e-14
7.60382e-14
1.71617e-13
4.29692e-13
7.03549e-15
1.86355e-14
6.79477e-14
1.53966e-13
2.51321e-15
6.88233e-15
1.84413e-14
6.12581e-14
5.73388e-16
1.81538e-15
5.804e-15
1.57028e-14
1.18311e-16
3.98601e-16
1.21476e-15
4.9396e-15
1.95342e-17
7.60204e-17
2.46971e-16
6.1921e-16
2.35238e-18
1.10295e-17
4.5634e-17
1.68594e-16
1.70071e-19
1.02324e-18
5.25852e-18
2.28694e-17
3.78801e-21
3.04061e-20
2.76416e-19
1.90618e-18
0.0257432
0.00735374
8.29752e-07
1.90169e-08
1.97964e-05
2.70768e-11
5.7211e-20
0.00499984
0.012752
0.00831459
0.00429816
0.000363324
4.2493e-09
0.462863
0.576949
0.369522
0.301328
0.425888
0.0932808
0.129299
0.0438665
0.000509167
2.1208e-07
-4.79816e-22
-8.74821e-31
1.61631e-23
7.94987e-06
1.3808e-05
8.04948e-06
8.38986e-06
4.38663e-06
-8.37031e-10
0.268197
0.576696
0.403016
0.245041
0.46553
0.397048
0.863801
0.705965
0.402248
0.196901
0.097066
0.0280649
0.000874826
4.6935e-09
5.36891e-09
3.09832e-07
2.48844e-11
2.91975e-13
-1.00563e-11
0.0774987
0.572072
0.489185
0.245695
0.414001
0.859125
0.993478
0.974281
0.969687
0.951898
0.87072
0.73169
0.415564
0.0705132
1.66891e-05
4.76499e-13
2.53453e-24
-1.78213e-31
-4.89006e-12
4.86431e-05
0.430279
0.488887
0.324228
0.475804
0.862039
0.98901
0.993309
0.993364
0.993307
0.993342
0.987144
0.968974
0.954628
0.650098
0.198927
0.0947673
0.000549047
4.39877e-21
4.52631e-10
0.0877531
0.46378
0.280004
0.401642
0.862308
0.541459
0.59977
0.642184
0.749846
0.880622
0.972016
0.992133
0.992149
0.988468
0.931013
0.857711
0.599622
0.145911
-1.61441e-07
0.00126243
0.11134
0.111714
0.231312
0.841883
-1.38092e-13
1.38092e-13
0.0125177
0.0443927
0.104156
0.223817
0.455919
0.726203
0.941685
0.939694
0.936986
0.93539
0.807976
0.568184
0.218613
0.111714
0.112123
0.112497
0.826002
2.96019e-06
1.81394e-07
-2.37811e-08
-5.87478e-11
3.43049e-15
4.03909e-06
0.00486131
0.0443858
0.161263
0.488327
0.868918
0.93483
0.934757
0.93479
0.746316
0.167101
0.112515
0.112921
0.781356
4.13938e-05
6.08153e-05
3.20626e-05
2.16463e-06
8.72101e-07
2.42535e-07
5.38413e-10
3.65341e-19
3.71772e-19
0.0161994
0.277576
0.785753
0.934879
0.934846
0.865206
0.288295
0.112939
0.116133
0.722229
0.000106832
9.04328e-05
1.80964e-05
4.90619e-08
5.1348e-08
3.68216e-08
1.5351e-07
1.58732e-07
1.42674e-08
1.74494e-07
1.21791e-05
0.264956
0.827485
0.79068
0.894599
0.680999
0.200147
0.524536
0.782388
8.28355e-06
8.33745e-06
2.29207e-05
3.53775e-06
1.81949e-07
5.55866e-08
5.3242e-08
5.00597e-08
2.91243e-12
7.63132e-07
1.32538e-05
0.00110333
0.264134
0.545904
0.949701
0.948339
0.743415
0.812643
0.913693
8.17498e-06
8.59486e-06
0.000170836
0.000314499
2.78609e-07
2.42556e-07
9.81316e-14
3.08476e-14
2.05238e-14
6.29886e-10
1.62075e-05
2.22984e-05
0.00550874
0.511656
0.95148
0.951687
0.948738
0.884731
0.943017
1.44218e-05
2.02196e-05
0.000364672
0.000962717
0.000710876
0.000189526
0.000210146
0.000103516
7.14279e-06
0.000128262
7.80777e-05
5.54e-05
4.08107e-05
0.260464
0.906756
0.948593
0.952557
0.952107
0.934283
0.00015853
0.000120588
0.000343766
0.000962643
0.000986439
0.00100588
0.00100633
0.00100586
0.000362584
0.000282699
7.67197e-05
4.39429e-05
4.09292e-05
0.0157135
0.520101
0.922909
0.947307
0.947986
0.925761
0.000240219
0.000239928
0.00011111
0.00010928
0.000528799
0.000670777
0.000684994
0.000535808
0.000294911
7.39411e-05
6.90942e-05
3.14557e-05
2.15749e-05
1.73142e-08
0.0592202
0.703219
0.919852
0.932273
0.932109
0.000239928
0.000239946
0.000215449
4.07086e-05
1.09704e-05
1.97827e-05
1.42036e-05
1.15389e-06
2.18528e-05
3.03343e-06
4.69635e-06
9.99869e-07
9.89105e-07
1.80851e-08
2.89271e-10
0.0987712
0.746277
0.931177
0.932024
0.000233092
0.000239928
0.000239926
0.000238502
7.66867e-05
5.9603e-08
6.02659e-08
1.16031e-07
2.1198e-07
2.89746e-06
4.03401e-10
1.23384e-12
1.04311e-12
2.10995e-08
2.77315e-10
7.04696e-20
0.0990864
0.651156
0.88661
1.40074e-05
7.21904e-05
2.77892e-05
4.16394e-05
9.30944e-05
3.10148e-05
2.80317e-07
4.18978e-07
5.51142e-07
1.49802e-05
5.31651e-05
3.14142e-05
5.22806e-22
1.17872e-25
-2.50097e-11
-6.21834e-10
-1.92711e-20
0.0411869
0.198304
2.32692e-08
2.43364e-08
4.0508e-08
9.50187e-08
1.1037e-06
6.83691e-06
2.68066e-06
4.99284e-07
5.58047e-07
1.03058e-05
7.15011e-05
7.09423e-05
4.62385e-05
1.08845e-05
4.55856e-06
1.15671e-05
1.25317e-05
3.9386e-08
3.91753e-08
1.83637e-08
1.7986e-08
2.68817e-08
5.47601e-08
1.19153e-07
4.34261e-07
2.12672e-06
2.3077e-06
1.50911e-06
1.02039e-06
2.05164e-05
7.24077e-05
8.05412e-05
8.04268e-05
8.04022e-05
7.97114e-05
2.51395e-05
4.91982e-07
3.89676e-08
1.37131e-08
1.59415e-08
2.36217e-08
5.03975e-08
1.08081e-07
6.64149e-07
2.31179e-06
2.31082e-06
1.58575e-06
2.61829e-07
7.2873e-08
8.43521e-06
3.6732e-05
4.85134e-05
5.03352e-05
4.01189e-05
1.40427e-05
5.80028e-07
8.22535e-09
8.77424e-09
1.1172e-08
1.4348e-08
3.31344e-08
9.38233e-08
7.92409e-07
1.74437e-06
1.09718e-06
1.1624e-07
6.3181e-08
7.13491e-08
1.19347e-08
1.19154e-08
4.44305e-07
6.20619e-07
2.14507e-08
2.09883e-07
1.0219e-07
8.26803e-09
5.11352e-09
6.51441e-09
7.78835e-09
1.26184e-08
3.86192e-08
1.2961e-07
2.45087e-07
1.13822e-07
8.2287e-09
4.14498e-09
4.98202e-08
2.9736e-08
1.51521e-08
1.1345e-08
1.12073e-08
1.17228e-08
1.49494e-08
2.76578e-08
7.15901e-09
1.88166e-09
2.83004e-09
3.5306e-09
4.1042e-09
5.59557e-09
1.30659e-08
2.83671e-08
1.83289e-08
2.786e-09
3.10824e-09
6.12214e-09
2.14793e-08
2.14491e-08
1.37665e-08
1.10704e-08
1.55601e-08
1.84044e-08
3.81062e-09
4.12643e-06
7.01983e-10
1.10061e-09
1.52672e-09
1.95152e-09
2.21103e-09
2.34512e-09
2.98888e-09
2.64198e-09
2.19833e-09
3.31039e-09
4.02571e-09
9.04082e-09
1.3202e-08
1.17431e-08
9.84075e-09
7.70981e-09
8.63114e-09
3.80312e-09
8.48228e-06
2.24339e-10
3.97902e-10
6.09205e-10
8.75495e-10
1.16195e-09
1.33943e-09
1.43959e-09
1.58282e-09
1.94391e-09
2.67706e-09
3.37822e-09
4.42928e-09
6.10854e-09
6.63116e-09
6.34984e-09
3.73756e-09
3.70235e-09
3.10416e-06
8.50502e-06
7.42022e-11
1.34526e-10
2.26035e-10
3.63956e-10
5.57691e-10
7.60506e-10
9.55625e-10
1.17655e-09
1.48127e-09
1.92464e-09
2.41349e-09
2.79395e-09
3.12497e-09
3.17647e-09
1.62823e-09
4.41547e-07
3.67291e-06
1.08473e-05
4.82425e-06
2.43619e-11
5.07185e-11
9.32318e-11
1.65397e-10
2.81013e-10
4.3318e-10
6.17867e-10
8.33833e-10
1.09174e-09
1.40269e-09
1.74477e-09
2.01509e-09
2.08787e-09
1.84421e-09
1.52397e-09
1.42074e-06
1.0882e-05
1.09332e-05
2.96181e-07
1.15792e-11
2.63776e-11
5.31902e-11
1.01702e-10
1.83785e-10
3.05505e-10
4.72251e-10
6.84191e-10
9.43217e-10
1.25225e-09
1.60708e-09
1.95132e-09
2.06057e-09
1.54284e-09
1.52375e-09
1.16624e-06
8.46132e-06
1.0885e-05
8.83538e-08
7.18537e-12
1.82896e-11
3.98672e-11
8.13801e-11
1.54759e-10
2.71712e-10
4.42553e-10
6.74153e-10
9.7586e-10
1.37678e-09
1.94344e-09
2.69154e-09
3.10065e-09
1.53038e-09
1.88789e-09
2.27589e-07
5.96536e-07
3.53646e-06
2.31286e-08
4.9752e-12
1.37166e-11
3.21745e-11
7.00817e-11
1.4071e-10
2.5996e-10
4.43557e-10
7.01762e-10
1.03824e-09
1.45603e-09
1.99991e-09
3.16378e-09
7.8199e-09
6.43798e-09
1.18553e-09
1.18542e-09
1.18559e-09
1.18551e-09
1.57428e-08
3.16532e-12
9.7752e-12
2.45652e-11
5.70779e-11
1.21566e-10
2.36798e-10
4.23189e-10
6.95711e-10
1.05755e-09
1.48764e-09
1.89107e-09
2.06676e-09
6.5232e-09
7.81403e-08
1.16268e-07
3.9644e-08
1.18551e-09
1.18559e-09
2.02756e-07
1.83612e-12
6.3376e-12
1.67996e-11
4.19575e-11
9.50899e-11
1.95558e-10
3.65902e-10
6.25587e-10
9.84455e-10
1.43389e-09
1.89644e-09
2.08318e-09
3.8789e-09
7.55603e-08
2.68286e-07
2.84056e-07
1.41427e-07
1.7168e-07
2.5065e-07
9.48429e-13
3.39691e-12
1.02657e-11
2.72698e-11
6.59175e-11
1.43299e-10
2.81156e-10
4.998e-10
8.11453e-10
1.21775e-09
1.71795e-09
2.28774e-09
3.25026e-09
2.20146e-08
1.86095e-07
2.96576e-07
2.82925e-07
2.89254e-07
2.51259e-07
4.23394e-13
1.58873e-12
5.3888e-12
1.53436e-11
3.96431e-11
9.13943e-11
1.88783e-10
3.5055e-10
5.88379e-10
9.02829e-10
1.29975e-09
1.84317e-09
2.82291e-09
5.79092e-09
2.4917e-08
2.52534e-07
2.97953e-07
2.88401e-07
8.54582e-08
1.45895e-13
6.52961e-13
2.32154e-12
7.3967e-12
2.02469e-11
4.95522e-11
1.08285e-10
2.11841e-10
3.70398e-10
5.83666e-10
8.44393e-10
1.18713e-09
1.80846e-09
3.36837e-09
9.35449e-09
4.10714e-08
2.66545e-07
2.8932e-07
1.37423e-08
5.21618e-14
2.26198e-13
8.73357e-13
2.98904e-12
8.75277e-12
2.28494e-11
5.28236e-11
1.09729e-10
2.01108e-10
3.31327e-10
4.91261e-10
6.79424e-10
9.87969e-10
1.78006e-09
3.43668e-09
1.35093e-08
4.82277e-08
6.50061e-08
1.37648e-08
1.30096e-14
6.7447e-14
2.8918e-13
1.01521e-12
3.22536e-12
8.97181e-12
2.27765e-11
5.00712e-11
9.85907e-11
1.71624e-10
2.6358e-10
3.63593e-10
4.91501e-10
8.14903e-10
1.89688e-09
3.08335e-09
1.21e-09
1.77844e-08
8.83996e-09
3.57995e-15
1.68989e-14
7.5936e-14
2.90447e-13
9.72556e-13
2.84222e-12
7.62258e-12
1.80533e-11
3.83834e-11
7.29025e-11
1.19029e-10
1.68431e-10
2.19276e-10
3.15915e-10
5.64449e-10
1.43396e-09
1.21384e-09
1.6205e-09
6.47828e-09
5.7442e-16
3.59044e-15
1.71246e-14
7.25264e-14
2.60033e-13
8.47316e-13
2.45429e-12
6.40886e-12
1.47732e-11
3.02586e-11
5.34662e-11
7.89578e-11
1.00947e-10
1.29634e-10
2.39826e-10
5.52136e-10
6.92274e-10
1.6376e-09
4.84972e-09
9.01661e-17
6.02899e-16
3.21782e-15
1.48376e-14
5.92143e-14
2.12614e-13
6.85899e-13
1.97304e-12
5.0238e-12
1.12042e-11
2.14989e-11
3.38146e-11
4.38865e-11
5.2084e-11
8.98642e-11
2.09556e-10
3.90432e-10
1.15775e-09
3.74289e-09
1.01216e-17
8.28173e-17
5.18291e-16
2.67502e-15
1.19743e-14
4.80646e-14
1.72234e-13
5.47031e-13
1.5351e-12
3.74751e-12
7.82381e-12
1.32626e-11
1.79459e-11
2.0331e-11
3.26009e-11
8.10381e-11
2.06226e-10
6.85154e-10
1.77866e-09
)
;

boundaryField
{
    leftWall
    {
        type            zeroGradient;
    }
    rightWall
    {
        type            zeroGradient;
    }
    lowerWall
    {
        type            zeroGradient;
    }
    atmosphere
    {
        type            inletOutlet;
        inletValue      uniform 0;
        value           nonuniform List<scalar> 
46
(
3.13716e-10
5.66221e-10
4.96346e-10
2.60232e-10
0
0
0
0
0
0
0
0
0
0
0
0
0
0
0
0
0
0
0
0
3.04061e-20
2.76416e-19
1.90618e-18
1.01216e-17
8.28173e-17
5.18291e-16
2.67502e-15
1.19743e-14
4.80646e-14
1.72234e-13
5.47031e-13
1.5351e-12
3.74751e-12
7.82381e-12
1.32626e-11
1.79459e-11
2.0331e-11
3.26009e-11
8.10381e-11
2.06226e-10
6.85154e-10
1.77866e-09
)
;
    }
    defaultFaces
    {
        type            empty;
    }
}


// ************************************************************************* //
