/*--------------------------------*- C++ -*----------------------------------*\
| =========                 |                                                 |
| \\      /  F ield         | OpenFOAM: The Open Source CFD Toolbox           |
|  \\    /   O peration     | Version:  2312                                  |
|   \\  /    A nd           | Website:  www.openfoam.com                      |
|    \\/     M anipulation  |                                                 |
\*---------------------------------------------------------------------------*/
FoamFile
{
    version     2.0;
    format      ascii;
    arch        "LSB;label=32;scalar=64";
    class       volScalarField;
    location    "1.65";
    object      alpha.galistan;
}
// * * * * * * * * * * * * * * * * * * * * * * * * * * * * * * * * * * * * * //

dimensions      [0 0 0 0 0 0 0];

internalField   nonuniform List<scalar> 
2268
(
1
1
1
1
1
1
1
1
1
1
1
1
1
1
1
1
1
1
1
1
1
0.999991
0.999936
1
1
1
1
1
1
1
1
1
1
1
1
1
1
1
1
1
1
1
1
1
0.999995
0.999936
1
1
1
1
1
1
1
1
1
1
1
1
1
1
1
1
1
1
1
1
1
0.999997
0.999965
1
1
1
1
1
1
1
1
1
1
1
1
1
1
1
1
1
1
1
1
0.999999
1
1
0.942339
0.957693
0.960595
0.982073
0.99139
0.9979
0.999979
0.999997
1
1
0.999928
0.998484
0.99997
1
1
1
1
1
1
0.999999
0.999997
0.999998
0.999999
0.492177
0.460667
0.447006
0.435007
0.467005
0.520031
0.629773
0.671766
0.633244
0.533382
0.428199
0.378294
0.402702
0.504154
0.653999
0.829368
0.972371
1
1
0.999999
0.999994
0.999965
0.999993
0.00731846
0.00217214
3.84255e-22
2.82529e-22
0.00323593
0.0170348
0.01858
0.027097
0.0175841
0.00536253
0.000219869
0.000146018
0.000154214
0.00413968
0.0320306
0.125107
0.317343
0.6131
0.855013
0.988725
0.999905
0.999948
0.999993
6.51648e-23
9.10454e-14
4.67144e-10
2.83345e-22
0.00563569
0.00963614
0.00211089
0.000902939
0.000272119
3.89997e-09
4.38944e-07
7.91907e-06
2.44835e-06
3.5275e-13
-2.68958e-11
3.91358e-20
-8.34634e-20
0.0170772
0.163794
0.441491
0.69384
0.820606
0.845212
0.778403
0.806672
0.841666
0.88096
0.881035
0.881887
0.902234
0.908919
0.912894
0.91617
0.92312
0.930274
0.932555
0.934234
0.941442
0.945413
0.945416
0.945414
0.939597
0.471016
0.585544
0.535895
0.564904
0.667453
0.658099
0.673928
0.67544
0.695655
0.761927
0.771538
0.7675
0.729215
0.798391
0.895706
0.936998
0.924556
0.896467
0.883317
0.272747
0.27288
0.278934
0.27732
0.383316
0.428217
0.345106
0.267953
0.295868
0.313066
0.37558
0.454251
0.400139
0.388285
0.446443
0.48379
0.414913
0.264582
0.233169
0.346235
0.263016
0.276385
0.277302
0.133367
0.103709
0.179544
0.226195
0.243781
0.201938
0.203058
0.198397
0.293169
0.322239
0.324688
0.233648
0.0262563
0.00257086
0.00257403
0.345896
0.247808
0.241276
0.27539
0.119987
0.0922807
0.0916276
0.14051
0.13968
0.125355
0.0740928
0.0433304
0.0816415
0.150182
0.123125
0.0531196
0.00652703
0.00856621
0.0025814
0.101314
0.0189806
0.00197796
0.0708829
0.127443
0.12445
0.115439
0.058985
0.0424605
0.0344407
0.0120261
5.20518e-06
0.0040221
0.0970994
0.0592006
0.00653511
0.00652697
0.0145954
0.00267309
0.0417214
0.0286875
0.0031445
5.67836e-05
0.0720398
0.124687
0.0727056
0.0165467
0.0014785
3.45132e-06
3.56371e-06
3.58353e-06
3.65459e-06
0.036979
0.0660469
0.0106649
0.0125297
0.0159191
0.0105809
0.358098
0.200372
0.00523692
5.60191e-05
0.00101483
0.0161126
0.00507156
9.05603e-05
0.000205875
0.000103336
3.68726e-06
3.65456e-06
3.65459e-06
0.0151083
0.0627374
0.0190638
0.0177245
0.01287
0.012881
6.62379e-23
3.87406e-10
7.54922e-22
7.58429e-22
8.95828e-05
0.0015846
0.00284783
0.00096147
1.5441e-05
3.75117e-09
9.02492e-09
2.19138e-08
3.48579e-13
3.52955e-13
1.56923e-07
1.36763e-06
7.84138e-06
1.76954e-05
1.26479e-05
1.19959e-05
0.0619532
0.16292
0.209779
1.34037e-06
2.70659e-06
3.11173e-07
7.54968e-22
3.82386e-06
4.51857e-06
0.000404645
0.000185232
2.71021e-05
8.05059e-09
1.50803e-09
1.53748e-09
3.21853e-09
1.10178e-10
1.18722e-10
2.28346e-08
3.72627e-05
0.000252607
0.000431454
0.000468443
-4.1625e-07
-7.17451e-07
-5.80168e-07
3.47299e-06
1.59019e-05
1.41006e-06
3.89895e-06
1.34016e-05
1.36273e-05
3.40642e-05
2.6884e-05
4.13963e-05
1.88246e-05
3.74141e-06
5.06265e-12
3.94526e-13
4.60432e-13
8.48536e-07
2.00865e-06
1.52469e-07
0.000297909
0.00252604
0.00267723
0.00254805
0.00231095
0.00216423
3.95208e-06
1.78886e-05
1.59787e-05
1.36933e-06
6.35203e-07
2.33272e-06
2.3362e-06
3.81303e-05
6.29545e-05
3.33434e-05
3.6576e-06
1.04607e-10
5.84545e-07
2.02323e-06
1.84423e-06
4.22469e-07
1.52298e-07
1.2153e-07
0.00134186
0.00267727
0.00247709
0.0012718
0.00112073
7.83963e-09
7.52271e-06
1.74059e-05
7.73345e-06
6.38859e-07
2.92703e-06
3.0337e-05
0.000175789
0.000294664
0.000285142
9.37706e-05
5.3119e-05
1.04786e-05
4.65174e-07
4.63606e-07
7.96206e-07
4.03845e-07
1.2275e-07
4.29906e-06
0.000764139
0.000728376
0.000403362
0.000406864
7.95026e-09
8.32455e-07
8.88554e-06
2.04412e-06
6.24299e-07
5.40176e-06
0.000214166
0.000306151
0.000306124
0.000221954
0.000223339
6.19902e-05
3.10931e-05
6.43649e-06
4.58496e-07
6.95956e-07
6.60955e-07
1.32239e-07
1.30815e-07
0.000126469
0.00011256
3.51639e-05
0.00110022
7.73189e-09
1.23667e-07
6.61192e-07
1.37999e-06
4.77183e-07
4.49911e-05
0.00028221
0.000249391
1.09864e-05
2.58981e-05
3.56362e-05
9.26352e-06
3.5469e-06
7.44691e-07
8.47165e-07
2.89616e-07
1.32991e-07
1.34636e-07
3.14182e-05
3.07824e-05
7.88467e-06
7.94513e-06
0.000924002
7.83601e-09
1.73221e-08
8.83362e-07
1.46516e-06
3.76041e-07
2.30011e-05
0.000231456
6.18128e-05
8.29483e-06
3.21094e-05
4.19528e-05
2.85327e-05
4.97997e-06
1.92297e-05
5.62098e-05
4.18788e-05
5.58415e-05
3.73744e-05
0.00037765
0.00048634
0.000246906
7.25178e-05
0.000244562
5.96668e-08
5.59132e-08
9.31648e-08
8.16595e-08
8.28805e-08
6.51022e-06
2.17018e-05
4.96391e-07
8.25724e-06
2.01759e-05
3.99675e-05
3.4967e-05
2.23624e-05
6.61325e-05
9.25451e-05
9.24046e-05
0.000193915
0.000283728
0.000484649
0.000476063
0.000437425
8.19694e-05
1.40338e-06
6.19971e-08
5.52268e-08
2.58391e-08
2.2904e-08
1.99864e-07
6.46922e-07
8.9438e-07
4.13567e-07
3.07044e-07
3.46596e-08
3.75082e-09
1.93099e-09
3.32277e-06
1.0348e-05
5.7976e-05
6.69607e-05
8.92838e-05
0.000108048
4.52154e-06
5.73561e-08
1.2962e-08
2.46125e-09
2.94098e-07
5.48888e-08
2.84823e-08
7.16675e-09
7.96302e-09
2.64015e-08
2.36946e-09
1.41138e-07
2.56015e-07
1.26536e-07
6.43475e-08
4.07909e-08
1.28663e-09
1.78613e-10
9.77249e-11
1.77431e-10
9.77249e-11
1.77431e-10
9.77251e-11
9.45317e-09
9.26568e-09
1.03179e-08
1.62726e-09
2.10283e-09
1.78152e-08
1.23698e-08
5.54916e-09
2.3928e-09
2.35625e-09
2.36285e-09
2.48162e-09
2.4855e-09
4.78214e-08
1.22725e-07
1.22609e-07
5.40652e-08
4.74478e-08
5.39892e-08
4.35103e-08
4.15168e-08
4.09077e-08
1.77135e-08
3.21011e-08
8.62008e-08
5.65202e-08
1.67249e-09
9.6304e-09
2.71498e-09
2.62825e-09
2.11399e-09
2.10733e-09
2.34899e-09
4.8463e-09
6.02981e-09
1.05581e-07
1.28494e-07
1.19629e-07
1.09399e-07
1.18447e-07
1.10499e-07
9.41432e-08
6.4935e-08
5.57065e-08
3.21361e-08
2.67866e-09
1.49903e-08
5.84223e-08
3.31111e-09
1.60646e-09
2.40581e-09
5.18502e-09
7.43849e-09
5.03752e-09
6.3193e-09
1.23683e-08
9.48719e-08
1.41096e-07
1.41104e-07
1.10732e-07
4.93697e-08
1.12728e-07
1.26374e-07
1.25868e-07
3.67485e-08
6.20129e-09
2.20244e-08
4.35435e-11
2.99371e-11
2.66448e-11
2.76985e-11
3.0691e-10
2.06658e-09
2.95043e-09
1.01867e-08
1.20031e-08
9.69395e-09
2.85189e-08
6.41016e-08
3.87054e-08
4.48815e-08
1.13408e-08
4.48906e-09
2.98707e-08
6.18824e-08
7.08107e-08
1.00232e-08
6.70436e-11
6.78107e-11
6.82403e-11
1.24435e-10
1.9491e-10
2.71902e-10
5.22779e-10
1.29189e-09
4.17347e-09
2.12646e-08
1.06386e-08
1.17544e-08
1.08321e-08
1.7246e-08
6.8607e-09
5.03291e-10
1.07349e-09
3.1917e-09
3.43761e-09
1.72426e-09
8.15588e-10
5.00183e-11
5.85097e-11
8.21986e-11
8.21447e-11
8.16316e-11
1.35228e-10
1.71903e-10
2.88179e-10
5.16124e-10
8.97718e-10
1.31438e-09
4.70928e-10
1.18341e-08
6.85562e-09
5.82895e-10
5.82214e-10
5.81624e-10
5.00937e-10
2.89702e-10
9.92245e-11
4.26667e-11
3.93801e-11
4.00599e-11
5.11825e-11
6.59026e-11
7.36587e-11
6.98154e-11
6.88294e-11
7.80381e-11
1.03264e-10
1.63883e-10
2.59276e-10
3.35331e-10
3.86255e-10
3.39237e-10
1.36899e-08
5.5527e-09
1.39916e-09
8.99837e-10
6.31344e-10
3.92004e-10
1.87151e-10
8.87597e-11
4.95968e-11
3.45539e-11
2.79446e-11
3.34952e-11
3.45202e-11
3.12797e-11
2.85146e-11
2.65959e-11
2.99493e-11
4.24497e-11
6.02502e-11
8.58086e-11
9.73827e-11
1.42538e-10
2.39042e-10
1.48645e-08
6.74146e-09
1.67666e-09
8.73886e-10
6.41292e-10
3.60919e-10
1.33572e-10
5.21533e-11
2.72958e-11
1.33211e-11
6.69653e-12
9.05977e-12
9.33453e-12
8.89815e-12
7.78049e-12
7.64234e-12
8.78779e-12
1.14346e-11
1.73792e-11
2.22501e-11
2.52917e-11
2.72591e-11
8.37894e-11
1.49749e-08
9.69602e-09
1.59008e-09
5.81364e-10
3.81769e-10
1.55892e-10
5.14963e-11
2.27247e-11
1.06819e-11
4.79518e-12
2.75031e-12
2.00659e-12
1.84432e-12
1.72283e-12
1.64099e-12
1.72433e-12
2.11251e-12
2.8895e-12
4.20914e-12
6.17213e-12
8.77525e-12
1.23418e-11
1.88006e-11
1.49724e-08
1.37188e-08
1.01592e-09
1.69487e-10
2.48647e-10
1.07565e-10
4.26225e-11
2.00696e-11
8.47174e-12
3.68744e-12
1.62262e-12
6.90492e-13
3.86158e-13
2.94483e-13
2.60018e-13
2.99024e-13
3.7687e-13
5.4746e-13
8.54787e-13
1.27966e-12
1.70796e-12
1.95702e-12
5.26535e-12
1.41432e-08
1.79506e-08
1.6038e-09
1.62206e-10
1.62097e-10
1.2164e-10
5.26662e-11
2.17712e-11
7.32873e-12
3.04284e-12
1.11445e-12
3.97512e-13
1.49834e-13
6.95408e-14
4.19645e-14
3.7716e-14
4.68873e-14
7.26689e-14
1.26226e-13
2.3494e-13
4.51707e-13
8.57331e-13
1.90736e-12
1.30412e-08
1.82061e-08
5.29603e-09
1.62313e-10
1.67653e-10
1.74532e-10
9.42009e-11
2.60447e-11
7.40198e-12
2.82183e-12
9.23434e-13
3.13094e-13
1.0114e-13
3.45834e-14
1.21976e-14
5.70247e-15
5.12701e-15
8.82449e-15
1.75087e-14
3.39122e-14
6.17519e-14
1.05586e-13
5.35612e-13
8.18568e-09
1.81943e-08
8.84845e-09
1.62417e-10
1.98994e-10
2.48942e-10
1.45975e-10
2.88758e-11
7.49102e-12
2.69904e-12
8.2302e-13
2.68092e-13
8.54118e-14
2.67818e-14
8.04592e-15
2.37781e-15
8.84576e-16
8.95835e-16
1.90097e-15
4.7816e-15
1.44167e-14
4.05833e-14
1.11161e-13
6.37261e-09
1.55988e-08
8.45724e-09
5.13965e-10
3.36583e-10
3.54258e-10
1.76429e-10
2.99929e-11
6.82665e-12
2.47383e-12
7.40753e-13
2.2959e-13
7.17785e-14
2.2344e-14
6.56748e-15
1.74538e-15
4.3902e-16
1.49723e-16
2.0914e-16
5.92484e-16
1.69855e-15
4.40295e-15
1.92198e-14
3.89255e-09
1.01182e-08
7.41595e-09
1.19887e-09
5.53411e-10
4.39205e-10
1.88156e-10
3.08354e-11
6.55626e-12
2.21176e-12
6.29748e-13
1.8686e-13
5.74661e-14
1.72949e-14
5.12039e-15
1.33505e-15
3.1483e-16
7.07102e-17
3.75055e-17
1.02498e-16
3.55864e-16
1.24961e-15
3.54887e-15
2.71932e-09
5.62679e-09
6.88628e-09
1.88033e-09
7.56589e-10
5.28164e-10
1.78334e-10
3.12667e-11
6.71363e-12
2.01375e-12
5.06128e-13
1.44182e-13
4.29903e-14
1.24653e-14
3.45103e-15
9.14406e-16
2.12429e-16
4.39281e-17
1.02322e-17
1.44608e-17
4.99786e-17
1.58689e-16
6.29836e-16
2.39946e-09
5.31992e-09
5.6979e-09
2.54334e-09
1.11589e-09
5.78466e-10
1.59847e-10
3.14951e-11
7.07636e-12
1.76372e-12
4.09071e-13
1.06223e-13
2.98481e-14
7.96208e-15
2.134e-15
5.38349e-16
1.19834e-16
2.44733e-17
4.26929e-18
2.8425e-18
9.54809e-18
3.74548e-17
1.19061e-16
1.89664e-09
4.80849e-09
5.51063e-09
3.41866e-09
1.55002e-09
6.83298e-10
1.8828e-10
3.25815e-11
7.45917e-12
1.64334e-12
3.36852e-13
7.43422e-14
1.87549e-14
4.75642e-15
1.17187e-15
2.75616e-16
5.8936e-17
1.11178e-17
1.73336e-18
4.80504e-19
1.19806e-18
4.6638e-18
1.8772e-17
1.7357e-09
4.29301e-09
5.51079e-09
4.06534e-09
1.59697e-09
6.28768e-10
2.1061e-10
3.56186e-11
7.21893e-12
1.67939e-12
3.15319e-13
5.39093e-14
1.0866e-14
2.50169e-15
5.75556e-16
1.19608e-16
2.44753e-17
4.38091e-18
6.67687e-19
9.78917e-20
1.53377e-19
6.89407e-19
2.46373e-18
1.6029e-09
3.12742e-09
5.14295e-09
3.75372e-09
1.54163e-09
6.77184e-10
1.549e-10
3.59625e-11
6.66881e-12
1.59541e-12
3.41067e-13
4.94081e-14
6.41181e-15
1.17356e-15
2.40115e-16
4.74483e-17
8.52278e-18
1.46638e-18
2.04281e-19
2.12663e-20
1.53324e-20
6.22456e-20
2.94307e-19
1.55015e-09
1.97414e-09
3.52591e-09
2.70677e-09
1.17276e-09
5.05285e-10
1.47272e-10
4.14995e-11
6.82324e-12
1.10794e-12
3.17383e-13
6.12197e-14
5.74466e-15
5.37873e-16
8.31747e-17
1.52642e-17
2.58436e-18
3.80937e-19
4.76711e-20
5.14367e-21
1.20739e-21
5.8216e-21
3.1288e-20
1.55016e-09
1.32629e-09
1.98641e-09
1.54924e-09
8.73187e-10
3.41371e-10
1.80169e-10
5.43142e-11
6.88755e-12
1.05728e-12
3.77832e-13
8.0326e-14
8.52599e-15
4.40385e-16
2.96906e-17
4.17399e-18
5.87052e-19
7.89412e-20
9.64091e-21
6.8352e-22
1.19666e-22
4.01966e-22
3.55651e-21
1.5022e-09
1.2243e-09
1.07737e-09
8.91358e-10
5.70844e-10
3.36566e-10
1.84456e-10
7.57178e-11
1.05138e-11
1.51514e-12
4.69463e-13
1.01771e-13
1.30608e-14
8.59576e-16
2.3212e-17
1.03489e-18
1.32532e-19
1.40305e-20
1.49988e-21
1.58371e-22
1.4356e-23
4.15002e-23
4.06044e-22
1.33234e-09
1.41081e-09
1.03689e-09
6.80591e-10
4.79297e-10
3.21777e-10
2.05044e-10
5.99495e-11
1.21228e-11
2.89605e-12
6.9418e-13
1.28073e-13
1.63537e-14
1.31306e-15
5.44169e-17
7.87587e-19
2.84473e-20
3.07964e-21
3.12811e-22
2.18649e-23
1.88699e-24
1.41671e-24
2.73324e-23
9.4541e-10
1.61864e-09
1.28657e-09
7.92352e-10
5.62516e-10
3.64655e-10
1.65742e-10
5.59741e-11
1.43338e-11
3.56636e-12
7.70409e-13
1.31681e-13
1.6654e-14
1.44004e-15
7.50903e-17
1.89154e-18
1.55851e-20
6.84329e-22
6.25841e-23
5.0778e-24
3.10543e-25
2.09627e-25
2.49932e-24
2.46193e-10
1.53334e-09
1.50162e-09
1.2614e-09
9.90695e-10
5.0909e-10
1.75667e-10
5.16353e-11
1.32603e-11
2.95754e-12
5.59468e-13
8.68944e-14
1.06504e-14
9.7285e-16
6.04142e-17
2.17234e-18
3.28774e-20
1.90603e-22
1.32125e-23
7.94656e-25
4.76454e-26
7.81173e-27
1.49357e-25
6.40947e-12
7.95092e-10
1.36664e-09
1.27349e-09
9.06809e-10
3.0837e-10
8.37063e-11
2.06544e-11
4.58332e-12
9.04806e-13
1.56778e-13
2.33841e-14
2.91599e-15
2.90419e-16
2.13937e-17
1.04e-18
2.7535e-20
2.64882e-22
2.6248e-24
1.55438e-25
7.53879e-27
1.0332e-27
8.47428e-27
1.70959e-13
1.39657e-10
6.74505e-10
5.87324e-10
2.45953e-10
5.05928e-11
1.09188e-11
2.65263e-12
6.001e-13
1.17521e-13
1.97709e-14
2.99789e-15
3.90059e-16
4.1448e-17
3.39953e-18
2.02719e-19
7.96595e-21
1.71642e-22
1.48809e-24
3.5486e-26
1.37456e-27
1.06206e-28
8.31999e-28
1.17818e-14
1.04093e-11
9.00228e-11
5.43629e-11
1.32996e-11
3.62292e-12
1.02389e-12
2.52277e-13
5.50748e-14
1.02654e-14
1.61114e-15
2.14162e-16
2.3994e-17
2.2601e-18
1.81895e-19
1.27783e-20
7.81881e-22
3.79616e-23
1.08335e-24
1.83205e-26
3.65254e-28
1.29754e-29
6.92796e-29
1.65592e-15
6.59955e-13
6.1662e-12
1.9197e-12
3.23245e-13
1.04264e-13
3.21527e-14
8.2712e-15
1.75598e-15
2.97636e-16
4.08325e-17
4.65104e-18
4.62021e-19
4.35906e-20
4.24407e-21
4.48152e-22
4.93273e-23
4.98857e-24
3.96775e-25
1.94226e-26
2.72107e-28
6.46667e-30
3.45544e-30
1.82509e-16
2.13717e-14
1.54727e-13
3.53637e-14
9.62903e-15
2.99318e-15
7.04318e-16
1.30025e-16
1.99565e-17
2.54592e-18
2.83459e-19
2.97606e-20
3.32662e-21
4.26394e-22
6.75443e-23
1.10398e-23
1.68887e-24
2.42122e-25
3.09047e-26
3.29961e-27
2.64523e-28
1.25296e-29
1.34877e-31
0.351329
0.419527
0.442399
0.443421
-6.75603e-08
-2.63495e-18
4.0545e-26
4.53289e-23
0.00141491
0.000473742
1.59769e-07
2.51843e-05
0.000935243
0.000726061
0.000223563
0.000273695
0.000654703
0.00111391
0.00107283
0.00051205
0.00133133
0.00132139
0.00131902
0.00132584
0.00132396
0.00113147
0.00131121
0.00133782
0.000592542
0.000396248
0.000115733
5.03662e-05
4.97372e-08
3.93549e-26
-4.88031e-14
1.43965e-26
2.06452e-07
3.88959e-08
1.44118e-13
1.76736e-08
2.05867e-08
1.1699e-07
1.01152e-06
1.94248e-06
8.12628e-08
8.63039e-07
4.4361e-06
8.04368e-06
2.93326e-07
4.34455e-06
4.73952e-06
2.2556e-06
8.72737e-07
1.23121e-06
2.68265e-07
2.91331e-07
1.56324e-10
7.20595e-12
1.53714e-09
4.6054e-07
7.27179e-12
8.88191e-12
7.20596e-12
7.84094e-07
2.17413e-10
3.19636e-10
5.14692e-09
4.52506e-09
3.67934e-10
3.43954e-10
1.39828e-10
5.55442e-11
1.50645e-10
1.93923e-10
2.3392e-10
2.5732e-10
4.32262e-11
6.90556e-11
1.09289e-10
1.54189e-10
1.00707e-11
1.61758e-11
4.17337e-11
6.23686e-11
5.12229e-12
8.10818e-12
1.29599e-11
2.20808e-11
1.24583e-12
1.98752e-12
4.44092e-12
6.59645e-12
3.10256e-13
5.2991e-13
9.16434e-13
1.70125e-12
4.81667e-14
8.54053e-14
2.28828e-13
3.5982e-13
1.02707e-14
1.92031e-14
3.82852e-14
7.5764e-14
1.58803e-15
2.95504e-15
8.06904e-15
1.34046e-14
3.52158e-16
6.62141e-16
1.27063e-15
2.54283e-15
5.07309e-17
9.69253e-17
2.27302e-16
3.98261e-16
8.30368e-18
1.73756e-17
3.43775e-17
7.24363e-17
1.04644e-18
2.34032e-18
6.77515e-18
1.49976e-17
1.6686e-19
5.37625e-19
1.57062e-18
4.92356e-18
2.23068e-20
8.43479e-20
4.23716e-19
1.33276e-18
3.90643e-21
1.85815e-20
7.11715e-20
3.44128e-19
2.44246e-22
1.18836e-21
1.1021e-20
5.21233e-20
2.73221e-23
1.43851e-22
8.32181e-22
7.04374e-21
1.70335e-24
1.0887e-23
7.74968e-23
5.33696e-22
1.05842e-25
6.21061e-25
3.46707e-24
4.18624e-23
8.31869e-27
3.88655e-26
1.66626e-25
5.1634e-25
8.35628e-28
4.28465e-27
2.09447e-26
1.09412e-25
5.57418e-29
3.57065e-28
1.92021e-27
9.16262e-27
7.11654e-31
9.71689e-30
9.41041e-29
6.75966e-28
0.422031
0.209902
0.0006412
3.64551e-05
1.60957e-05
2.21904e-06
2.09504e-06
3.50658e-06
5.70381e-05
7.23747e-05
1.20041e-05
3.65455e-06
0.000654612
0.00974422
0.0290222
0.0227403
0.0215693
0.0149668
0.00812606
-1.12396e-21
1.45161e-09
0.00199054
0.00262359
0.00159444
9.5669e-05
2.71408e-06
2.32358e-06
8.62273e-06
2.07733e-05
1.54173e-05
1.70764e-05
0.000889498
0.00340495
0.00448467
0.00581881
0.0138629
0.0154739
0.00659091
0.00114906
0.00146044
0.000973991
0.000976897
0.00390153
0.00519373
0.00289231
0.000233307
9.42365e-05
2.32828e-05
7.05833e-06
6.6242e-06
1.70727e-05
0.000732703
0.00177201
0.00181793
0.00585791
0.0149023
0.00642482
0.000988319
0.00145216
0.000877451
0.000988049
0.00455828
0.00581241
0.00581048
0.00320361
0.000116776
0.00015099
0.00576503
0.00541477
0.000497668
0.000274623
0.00333131
0.0091222
0.00587533
0.0127176
0.00556929
0.000192187
0.000168402
0.000272337
0.000217173
2.65833e-05
0.000585885
0.00379901
0.00342018
0.00022704
0.000717492
0.0114616
0.0116092
0.00530554
0.000496784
0.000474144
0.0144338
0.0312171
0.00834153
0.00466821
0.000728029
9.40421e-06
-1.53502e-23
6.57656e-25
3.42632e-25
9.32645e-09
3.35287e-05
0.000224751
4.32105e-05
4.48564e-07
0.00474359
0.00964869
0.00393918
0.00087366
0.00724633
0.0323507
0.0336406
0.0129502
0.00466477
0.000581283
7.44068e-05
3.51095e-06
1.79007e-06
2.72173e-06
1.58119e-06
2.86914e-12
2.38342e-12
8.68414e-07
4.06496e-07
0.00161794
0.00151329
1.40041e-06
0.0116846
0.0326273
0.0336421
0.0336431
0.0122828
0.00466679
1.50084e-05
1.63689e-05
1.26132e-05
9.43288e-06
9.46768e-06
6.82092e-06
2.51713e-06
1.60036e-07
6.85803e-08
4.44364e-07
5.02562e-07
0.000132747
9.1419e-07
0.0119646
0.0335976
0.0336431
0.0215232
0.00785604
0.00845663
-9.3224e-26
3.12495e-25
1.73574e-06
7.85614e-06
9.01342e-06
8.73209e-06
2.81354e-06
1.79335e-07
6.19928e-07
4.68403e-06
4.04936e-06
1.93612e-12
5.47012e-13
0.011645
0.0329476
0.0334119
0.00925021
0.00712759
0.00905522
2.3201e-07
2.35449e-07
1.6433e-06
2.13229e-06
1.4588e-06
1.734e-06
1.49631e-06
1.17026e-06
6.00872e-06
8.27966e-06
1.16189e-06
-4.66431e-11
-1.41354e-09
0.0204212
0.0252103
0.00944037
0.00638937
0.00322575
0.00905626
3.69214e-06
9.599e-06
3.07232e-06
4.57018e-08
2.4719e-08
1.59563e-07
6.00519e-07
1.30899e-06
7.41465e-06
6.49203e-06
1.79827e-10
-1.33711e-14
0.00687268
0.0232152
0.00530993
0.00249773
0.00254674
0.00249186
0.0042714
1.046e-05
2.40184e-05
2.87756e-05
8.02925e-07
1.92504e-08
2.97432e-08
4.58378e-07
7.70012e-07
3.9314e-06
3.84075e-06
4.72527e-05
0.000113679
0.00724263
0.0179464
0.0037733
0.00250046
0.00249335
0.00249264
0.00266424
1.56802e-05
4.69389e-05
4.67119e-05
1.43383e-05
9.09186e-09
9.11523e-09
9.09431e-09
9.17479e-09
3.35871e-07
9.44179e-05
0.000210634
0.0001287
0.00153514
0.0112227
0.0150944
0.00249809
0.00250656
0.00289137
0.0139489
1.0937e-05
4.65038e-05
4.66976e-05
4.52801e-05
9.53707e-06
3.41091e-05
4.48421e-05
3.67497e-05
4.28808e-05
0.000182899
0.000210325
0.000177961
0.000346302
0.0079315
0.020767
0.018355
0.00489985
0.00686307
0.0178331
5.86988e-06
1.03429e-05
3.02508e-05
2.47313e-05
2.70158e-05
3.36425e-05
5.76716e-05
5.77004e-05
5.16305e-05
4.41396e-05
0.000159673
0.000139165
9.94771e-06
0.00189751
0.0189935
0.022025
0.0219846
0.0220078
0.0188709
2.6341e-06
2.55049e-06
2.8358e-07
3.08953e-07
4.10593e-07
3.33022e-06
1.42464e-05
1.97318e-05
7.40784e-06
3.54516e-09
5.63917e-06
6.73054e-06
3.08471e-07
1.63651e-06
0.00863891
0.022025
0.022025
0.022025
0.0218781
3.26554e-11
3.31015e-11
2.82563e-07
4.2528e-07
3.22626e-07
1.80935e-08
1.82848e-08
2.88047e-08
2.02197e-08
3.50326e-09
3.11231e-09
1.3088e-09
2.46443e-09
1.85629e-07
0.000383727
0.0134388
0.022025
0.022025
0.0220055
5.92747e-11
7.65566e-11
6.48483e-11
2.57317e-08
6.50302e-08
5.90458e-08
1.97434e-08
2.46261e-08
1.68049e-09
8.30104e-10
9.07132e-10
1.29563e-09
2.86276e-09
1.02838e-07
4.3565e-07
8.28604e-06
0.00789166
0.0188068
0.0219989
3.28534e-10
7.774e-10
2.41187e-09
6.22871e-09
1.33211e-08
2.2515e-08
5.82433e-09
6.91492e-10
1.09146e-09
3.81231e-10
8.94819e-10
1.59614e-09
3.76491e-09
5.07517e-08
4.04538e-07
1.34936e-06
7.33957e-07
0.000701252
0.00274783
1.77729e-10
1.96704e-10
1.96202e-10
2.2183e-10
3.53761e-10
8.72994e-10
1.52167e-09
6.42001e-10
4.40041e-10
3.47602e-10
6.3035e-10
1.1825e-09
2.33457e-09
1.82217e-08
1.61849e-07
6.12195e-07
5.48903e-09
9.2382e-10
9.21819e-10
9.5579e-11
1.30398e-10
1.52208e-10
1.67615e-10
1.85023e-10
2.6902e-10
4.80707e-10
5.47138e-10
3.42039e-10
2.7956e-10
3.17068e-10
5.01831e-10
1.27204e-09
6.23981e-09
1.67073e-08
6.94244e-08
6.25272e-09
2.82865e-09
5.36961e-09
3.26622e-11
5.93429e-11
8.24221e-11
1.0204e-10
1.12395e-10
1.38289e-10
2.02092e-10
2.70594e-10
2.44425e-10
1.7627e-10
1.41368e-10
2.0323e-10
5.32261e-10
5.92058e-10
1.66043e-10
1.66808e-10
9.73105e-10
4.35064e-09
6.7968e-09
1.14182e-11
2.12273e-11
3.18235e-11
4.12981e-11
4.62587e-11
4.64528e-11
5.41007e-11
7.22e-11
9.38408e-11
8.45813e-11
8.05921e-11
6.0694e-11
8.95361e-11
7.8882e-11
1.65268e-10
2.66752e-10
1.06716e-09
4.28791e-09
6.79367e-09
2.75979e-12
6.03487e-12
9.73697e-12
1.33861e-11
1.57102e-11
1.49366e-11
1.46823e-11
1.76515e-11
2.28139e-11
2.55952e-11
2.68605e-11
3.25916e-11
3.86927e-11
4.89262e-11
1.70052e-10
4.75015e-10
1.46701e-09
4.37732e-09
6.27293e-09
6.52129e-13
1.48257e-12
2.663e-12
4.13456e-12
5.278e-12
4.71806e-12
3.78994e-12
4.1414e-12
6.46042e-12
1.06928e-11
1.1707e-11
1.6048e-11
2.14333e-11
3.57966e-11
1.40884e-10
4.58613e-10
1.68404e-09
4.78222e-09
5.42258e-09
1.27037e-13
3.29571e-13
6.63937e-13
1.16485e-12
1.73308e-12
1.84447e-12
1.49588e-12
1.57945e-12
2.3698e-12
4.10426e-12
5.81544e-12
7.5824e-12
1.16904e-11
2.37478e-11
1.0346e-10
3.65147e-10
1.92286e-09
5.03268e-09
5.07571e-09
2.54685e-14
6.58922e-14
1.45348e-13
2.86134e-13
4.94667e-13
6.29065e-13
6.24214e-13
6.94483e-13
9.60276e-13
1.54882e-12
2.38394e-12
3.28833e-12
5.15916e-12
1.26591e-11
6.01236e-11
2.93265e-10
1.95954e-09
5.00029e-09
4.47675e-09
4.44971e-15
1.26254e-14
2.97489e-14
6.4616e-14
1.27325e-13
1.92266e-13
2.36834e-13
2.93011e-13
4.12426e-13
6.4454e-13
1.03387e-12
1.58291e-12
2.48914e-12
6.23489e-12
1.9005e-11
1.9021e-10
1.78172e-09
4.84574e-09
2.64883e-09
7.99508e-16
2.31398e-15
5.83863e-15
1.3889e-14
3.09419e-14
5.53647e-14
8.54693e-14
1.29462e-13
2.14035e-13
3.78727e-13
6.92054e-13
1.23399e-12
2.09594e-12
5.23105e-12
1.85554e-11
1.825e-10
1.66457e-09
4.64428e-09
1.94684e-09
1.42467e-16
4.61705e-16
1.31014e-15
3.58494e-15
9.41839e-15
2.15037e-14
4.51566e-14
9.33508e-14
1.94243e-13
4.00223e-13
8.09775e-13
1.62592e-12
3.78606e-12
1.04263e-11
3.39707e-11
2.76687e-10
1.68176e-09
4.09905e-09
1.46768e-09
3.88868e-17
1.63637e-16
5.99528e-16
2.0668e-15
6.61152e-15
1.91668e-14
5.10607e-14
1.27797e-13
3.04827e-13
6.50888e-13
1.22787e-12
2.36511e-12
5.549e-12
2.46595e-11
9.04756e-11
4.51263e-10
1.74438e-09
2.92914e-09
1.30358e-09
1.48953e-17
8.38566e-17
3.81494e-16
1.59319e-15
6.07636e-15
2.10875e-14
6.6833e-14
1.91336e-13
4.85186e-13
1.11155e-12
2.3311e-12
4.45662e-12
1.29438e-11
4.8066e-11
1.90482e-10
7.10373e-10
1.7219e-09
2.39744e-09
7.84006e-10
5.274e-18
3.59349e-17
1.86636e-16
9.00935e-16
3.93598e-15
1.55246e-14
5.55358e-14
1.80416e-13
5.32605e-13
1.42165e-12
3.34038e-12
6.85461e-12
2.11901e-11
7.44629e-11
2.5726e-10
7.36556e-10
1.57877e-09
1.52122e-09
5.53475e-10
1.38352e-18
1.03278e-17
6.64067e-17
3.63339e-16
1.80491e-15
8.02233e-15
3.21694e-14
1.16807e-13
3.83906e-13
1.1418e-12
3.08223e-12
7.5947e-12
1.98058e-11
6.76756e-11
2.63069e-10
6.42156e-10
1.04841e-09
1.16469e-09
3.68708e-10
2.75377e-19
2.25145e-18
1.67896e-17
1.0522e-16
5.91779e-16
2.95446e-15
1.32479e-14
5.37749e-14
1.98316e-13
6.64933e-13
2.03091e-12
5.69248e-12
1.55466e-11
4.70926e-11
1.63162e-10
4.98531e-10
8.07658e-10
6.33719e-10
2.04529e-10
3.55815e-20
3.62656e-19
2.98578e-18
2.23638e-17
1.40872e-16
7.8729e-16
3.94055e-15
1.78408e-14
7.35545e-14
2.76793e-13
9.49161e-13
2.9903e-12
8.95679e-12
2.63229e-11
8.04606e-11
2.08156e-10
4.93431e-10
4.67723e-10
9.14701e-11
3.90403e-21
4.18461e-20
4.04914e-19
3.46859e-18
2.45701e-17
1.53859e-16
8.6194e-16
4.35146e-15
1.99277e-14
8.55234e-14
3.43404e-13
1.24246e-12
4.0567e-12
1.23051e-11
3.08434e-11
9.10058e-11
1.7853e-10
1.85721e-10
6.92831e-11
2.46237e-22
3.51167e-21
4.07241e-20
3.74148e-19
3.05188e-18
2.18284e-17
1.46341e-16
8.39349e-16
4.44336e-15
2.18838e-14
9.9857e-14
4.11243e-13
1.4966e-12
4.86407e-12
1.46331e-11
2.86424e-11
4.21144e-11
1.06807e-10
3.31511e-11
1.63912e-23
2.05433e-22
2.65961e-21
2.87947e-20
2.58186e-19
1.98276e-18
1.4648e-17
9.75613e-17
6.18425e-16
3.65189e-15
1.92429e-14
9.40968e-14
4.19018e-13
1.49925e-12
3.81487e-12
1.20653e-11
2.25588e-11
2.99039e-11
1.85366e-11
7.00685e-25
1.13388e-23
1.54503e-22
1.86519e-21
1.89102e-20
1.7338e-19
1.44575e-18
1.1512e-17
8.59166e-17
6.03703e-16
3.80041e-15
2.17864e-14
1.10904e-13
4.48072e-13
1.43104e-12
3.96128e-12
5.05988e-12
1.24176e-11
9.89592e-12
4.57995e-26
5.44197e-25
7.02494e-24
9.23632e-23
1.09652e-21
1.21052e-20
1.21945e-19
1.15144e-18
1.01909e-17
8.49309e-17
6.41376e-16
4.34522e-15
2.56412e-14
1.18772e-13
4.2146e-13
1.17463e-12
1.79198e-12
4.6886e-12
5.01748e-12
3.81963e-27
3.73153e-26
3.59582e-25
4.1392e-24
5.38256e-23
7.08723e-22
8.74059e-21
9.92296e-20
1.04488e-18
1.02943e-17
9.26839e-17
7.46959e-16
5.23576e-15
2.82608e-14
1.09155e-13
3.20369e-13
5.78942e-13
1.56588e-12
1.17498e-12
)
;

boundaryField
{
    leftWall
    {
        type            zeroGradient;
    }
    rightWall
    {
        type            zeroGradient;
    }
    lowerWall
    {
        type            zeroGradient;
    }
    atmosphere
    {
        type            inletOutlet;
        inletValue      uniform 0;
        value           nonuniform List<scalar> 
46
(
1.82509e-16
2.13717e-14
1.54727e-13
3.53637e-14
0
0
0
0
0
0
0
0
0
0
0
0
0
0
0
0
0
0
0
0
9.7169e-30
9.41041e-29
6.75966e-28
3.81963e-27
3.73153e-26
3.59582e-25
4.1392e-24
5.38256e-23
7.08723e-22
8.74059e-21
9.92296e-20
1.04488e-18
1.02943e-17
9.26839e-17
7.46959e-16
5.23576e-15
2.82608e-14
1.09155e-13
3.20369e-13
5.78942e-13
1.56588e-12
1.17498e-12
)
;
    }
    defaultFaces
    {
        type            empty;
    }
}


// ************************************************************************* //
