/*--------------------------------*- C++ -*----------------------------------*\
| =========                 |                                                 |
| \\      /  F ield         | OpenFOAM: The Open Source CFD Toolbox           |
|  \\    /   O peration     | Version:  2312                                  |
|   \\  /    A nd           | Website:  www.openfoam.com                      |
|    \\/     M anipulation  |                                                 |
\*---------------------------------------------------------------------------*/
FoamFile
{
    version     2.0;
    format      ascii;
    arch        "LSB;label=32;scalar=64";
    class       volScalarField;
    location    "5.6";
    object      alpha.water_0;
}
// * * * * * * * * * * * * * * * * * * * * * * * * * * * * * * * * * * * * * //

dimensions      [0 0 0 0 0 0 0];

internalField   nonuniform List<scalar> 
2268
(
3.07278e-07
3.0447e-07
2.64051e-07
1.47496e-07
2.77927e-09
5.58257e-10
5.57947e-10
4.77809e-10
3.32395e-10
2.34605e-10
1.71574e-10
1.33444e-10
1.11929e-10
1.02301e-10
1.01582e-10
1.10969e-10
1.36494e-10
1.84068e-10
2.68543e-10
4.67414e-10
1.00567e-09
1.35382e-09
1.37424e-09
2.09373e-07
1.84051e-07
8.13132e-08
1.42445e-08
1.24578e-09
1.22421e-09
9.60832e-10
7.5683e-10
5.08269e-10
3.78095e-10
3.28901e-10
3.22629e-10
3.23347e-10
3.09072e-10
2.68055e-10
2.3689e-10
2.5424e-10
3.31156e-10
5.06554e-10
7.07985e-10
1.10555e-09
1.31539e-09
1.28256e-09
2.7287e-08
2.98003e-09
7.29641e-10
1.77521e-09
3.59371e-09
3.94918e-09
4.95598e-09
2.91189e-09
1.50112e-09
9.10663e-10
7.52094e-10
8.29597e-10
9.93766e-10
1.01137e-09
9.16761e-10
7.80921e-10
5.50968e-10
5.22308e-10
5.50377e-10
7.50001e-10
9.97116e-10
9.57179e-10
9.71034e-10
2.15139e-20
6.52194e-10
7.22591e-10
6.13373e-10
8.58361e-10
1.27637e-09
7.19454e-09
3.36016e-09
9.86835e-10
5.08147e-10
5.53603e-10
7.00522e-10
7.65377e-10
6.77781e-10
6.12818e-10
4.81983e-10
3.91242e-10
4.29257e-10
4.74167e-10
5.64209e-10
6.14162e-10
6.01473e-10
5.94894e-10
2.13924e-20
-1.04793e-19
-4.13468e-20
8.13208e-20
-6.25409e-20
-1.02823e-14
-9.69761e-13
-5.59131e-20
-2.90823e-13
-2.70826e-13
-4.04936e-13
-3.81495e-13
-3.26096e-13
-1.12482e-20
2.38689e-21
1.29345e-28
-7.41751e-14
-1.16535e-12
-1.91664e-12
-1.07001e-12
-2.7026e-22
-2.47657e-27
-9.26448e-13
0.283456
0.276856
0.264483
0.247342
0.225143
0.197146
0.165376
0.132737
0.103075
0.0782284
0.0579423
0.0435294
0.0369522
0.0347894
0.0316529
0.0253119
0.00998051
7.96933e-10
0.000981757
0.0148768
0.0325329
0.0490762
0.0699981
0.970216
0.96809
0.962645
0.953256
0.941954
0.925135
0.902684
0.873184
0.837557
0.800219
0.763702
0.728869
0.696532
0.666539
0.64137
0.630944
0.579322
0.545879
0.572095
0.622986
0.666947
0.699597
0.729578
0.999168
0.999452
0.999452
0.999405
0.9992
0.999191
0.99945
0.999767
0.999787
0.999726
0.999641
0.999566
0.999668
0.999787
0.999621
0.995235
0.977646
0.954362
0.951967
0.969326
0.976087
0.973806
0.967085
0.00885251
0.00711424
0.00368765
0.00193908
0.00353954
0.00461558
0.0058278
0.00693555
0.00781707
0.00782664
0.00777706
0.00775636
0.00539183
0.00368477
0.0036985
0.0037694
0.00319662
0.00248222
0.0025145
0.0066655
0.00124695
-3.70607e-06
-2.96418e-06
-5.5112e-06
4.45967e-24
0.000203134
0.000571334
0.000751504
0.000456405
0.000460018
0.000455216
0.00045827
0.000453897
0.000457665
0.000575818
0.000125559
0.00011506
0.000116685
0.4371
0.431844
0.370979
0.270612
0.156356
0.0660341
0.0143031
0.000566232
0.00402276
0.0192465
0.0371494
0.0450719
0.0523488
0.0537559
0.0204527
0.00314814
0.00772846
0.0105408
0.00176417
0.83201
0.973046
0.919501
0.859432
0.75384
0.607257
0.502619
0.471013
0.519033
0.624554
0.678747
0.6812
0.626081
0.612776
0.483555
0.333409
0.343079
0.415166
0.357364
0.976941
0.990212
0.990198
0.990204
0.982328
0.93815
0.913416
0.918038
0.939576
0.966139
0.97389
0.972072
0.92191
0.89286
0.892537
0.640187
0.778158
0.937301
0.683412
0.987737
0.988493
0.986265
0.986591
0.988516
0.988707
0.982738
0.96739
0.970016
0.989447
0.989457
0.989447
0.978023
0.916454
0.856082
0.650955
0.826833
0.951619
0.738545
0.935323
0.988964
0.991455
0.986781
0.986995
0.990994
0.990991
0.986324
0.981128
0.989408
0.989398
0.989408
0.988134
0.918189
0.811306
0.752284
0.894031
0.951516
0.774957
0.894787
0.974734
0.995415
0.988288
0.987533
0.989401
0.990976
0.990974
0.98963
0.989071
0.968513
0.978585
0.908155
0.855083
0.899191
0.909709
0.951681
0.951683
0.839535
0.997375
0.99933
0.999452
0.99937
0.998945
0.996419
0.997038
0.99965
0.999737
0.99882
0.998419
0.999265
0.999787
0.999787
0.999787
0.999786
0.99977
0.999724
0.999639
0.999701
0.999751
0.999789
0.999788
0.94217
0.95176
0.947949
0.930829
0.907962
0.910328
0.917285
0.931429
0.93159
0.916682
0.911905
0.918248
0.941237
0.972667
0.986718
0.968031
0.952275
0.963294
0.964661
0.970893
0.973716
0.955795
0.917853
0.353087
0.335305
0.335679
0.303444
0.23436
0.224918
0.243043
0.266139
0.287804
0.307037
0.300824
0.291248
0.287692
0.249402
0.224525
0.222986
0.25309
0.270035
0.272774
0.267505
0.251214
0.223982
0.206127
-5.8303e-20
3.68112e-20
4.13211e-20
2.38593e-20
2.38483e-20
2.38892e-20
2.10226e-12
6.40205e-15
-1.59247e-10
-3.39677e-27
3.99385e-18
1.21922e-23
5.09712e-24
-4.2558e-14
-4.1556e-09
-1.22415e-08
-1.97367e-08
-3.69168e-08
-9.5913e-08
-1.99065e-17
-4.01334e-07
-1.73821e-07
-2.73766e-07
-3.8199e-21
8.45812e-38
-1.29582e-21
-5.29393e-24
7.66727e-06
2.45589e-05
1.87659e-05
2.56174e-05
3.50057e-05
1.26479e-05
2.39618e-07
1.99402e-05
2.81396e-05
3.52914e-05
7.39073e-05
0.000107785
7.3138e-05
4.70675e-05
0.000136728
0.000762327
0.000868732
0.000328279
0.000284798
1.42395e-05
2.86633e-05
4.35225e-05
0.000112578
0.000151457
0.000150582
0.00025157
5.46699e-05
3.83116e-05
9.18284e-05
0.000195019
0.000207112
0.000155148
7.98767e-05
0.000127026
0.000261529
0.000294627
0.000260921
0.000186581
0.000207617
0.00347313
0.00917373
0.00475214
7.09708e-05
6.90223e-05
6.82627e-05
0.000149881
0.000830763
0.00395788
0.00418299
0.00164198
0.00145564
0.00192736
0.00190816
0.00128951
0.000547639
0.000117426
0.000122952
0.000338117
0.00151581
0.00669744
0.00819613
0.00349443
0.0032553
0.0116041
0.0198429
0.000264407
0.000142941
0.000772799
0.00394302
0.00459066
0.0045922
0.00459066
0.00296751
0.00214552
0.00180846
0.00120774
0.000740126
0.000345612
0.000170221
0.000403782
0.00116696
0.00215911
0.00858701
0.00948387
0.00949468
0.0047183
0.00888848
0.0198426
0.000269773
0.000227537
0.000681557
0.0039248
0.00389673
0.00100062
0.000104662
3.88433e-08
3.4021e-08
3.854e-08
3.56829e-08
1.61129e-07
2.97211e-05
0.000203823
0.000482466
0.000636934
0.00058567
9.34611e-07
0.000940815
0.000981594
0.00243393
0.00827311
0.0107883
0.000270119
0.000112712
0.000251047
0.00117367
0.000461813
5.53434e-06
6.48123e-07
1.03259e-06
3.91954e-07
4.41596e-07
7.10116e-07
8.36854e-07
7.27171e-07
3.49352e-08
3.54022e-08
3.52772e-08
3.57443e-08
7.65703e-07
1.99418e-06
2.58396e-06
4.32264e-05
0.000675506
0.000113241
6.58577e-05
1.06269e-06
1.41535e-07
1.64134e-07
2.8845e-07
4.74896e-07
4.20669e-07
9.67575e-08
2.40838e-07
6.79844e-07
1.23178e-06
1.23576e-06
1.89372e-07
4.06098e-08
1.9647e-07
3.56212e-06
6.30274e-06
3.47882e-06
1.90048e-06
2.05756e-06
1.22033e-05
1.50312e-05
1.48869e-05
2.0523e-08
1.97506e-08
1.90088e-08
1.54477e-08
8.88062e-09
4.04611e-08
4.95307e-08
6.83351e-08
5.38579e-07
1.17987e-06
1.23233e-06
1.02108e-06
1.40508e-07
3.71229e-08
1.71594e-06
1.04948e-05
1.16037e-05
7.22255e-06
2.08957e-06
2.94817e-05
4.16224e-05
3.62407e-05
4.07555e-05
8.27886e-08
9.29668e-08
9.12647e-08
1.95036e-08
8.88642e-09
8.93608e-09
9.01273e-09
1.78905e-07
4.39895e-07
2.30415e-07
2.13586e-07
9.5399e-09
1.35795e-08
3.72678e-08
3.17805e-06
1.04899e-05
1.0405e-05
2.35357e-06
1.68522e-05
4.10726e-05
4.15817e-05
4.15331e-05
2.40265e-05
1.50006e-07
1.34381e-07
6.99543e-08
1.07191e-08
8.88062e-09
8.99151e-09
6.13675e-08
6.9501e-08
9.86116e-09
3.49561e-09
4.53624e-09
7.8598e-09
1.65605e-08
5.35729e-08
3.62734e-09
1.13432e-06
6.62523e-09
6.47345e-07
2.99826e-05
4.12406e-05
3.72638e-05
8.95311e-06
9.20479e-07
1.28536e-07
8.65641e-08
3.40849e-08
9.11161e-09
8.89113e-09
1.59295e-08
2.63677e-08
1.60618e-08
7.54137e-09
3.22566e-09
2.46352e-09
4.54282e-09
5.91937e-09
4.67845e-09
1.76908e-09
1.73011e-09
1.72595e-09
3.29329e-07
1.20023e-05
1.79754e-05
1.03611e-06
9.35019e-07
1.15461e-06
4.26234e-08
2.49111e-08
1.09469e-08
8.57721e-09
8.88507e-09
8.77113e-09
5.59374e-09
2.61963e-09
1.66493e-09
1.84157e-09
2.28515e-09
2.10293e-09
2.67718e-09
2.68745e-09
3.43824e-09
3.99402e-09
3.00653e-09
6.38827e-08
5.25184e-09
1.18989e-08
1.60354e-07
1.26027e-06
1.50356e-06
1.23566e-08
6.33279e-09
5.06991e-09
5.72848e-09
5.67641e-09
4.39695e-09
2.79683e-09
1.77283e-09
1.41372e-09
1.4371e-09
1.65164e-09
2.01103e-09
2.58788e-09
3.59704e-09
4.85018e-09
5.52723e-09
4.66435e-09
3.44546e-09
6.0639e-09
6.03722e-09
3.53087e-06
1.46003e-05
3.06182e-06
1.23415e-08
4.02074e-09
3.18288e-09
3.73704e-09
3.55134e-09
2.70849e-09
1.89343e-09
1.32778e-09
1.01389e-09
9.36191e-10
1.06578e-09
1.37688e-09
1.90617e-09
2.77408e-09
3.70509e-09
4.23219e-09
3.13699e-09
2.43628e-09
9.35026e-09
5.89871e-09
4.74023e-06
1.65866e-05
1.42529e-05
1.27851e-08
3.08986e-09
2.09374e-09
2.35148e-09
2.0829e-09
1.6049e-09
1.16009e-09
8.19993e-10
6.15004e-10
5.43647e-10
5.96803e-10
7.48021e-10
1.009e-09
1.39309e-09
1.86858e-09
2.17511e-09
1.8163e-09
2.09086e-09
1.32144e-08
3.68297e-08
1.20254e-07
9.00292e-06
1.57606e-05
1.26419e-08
2.10875e-09
1.27837e-09
1.38285e-09
1.16362e-09
8.73492e-10
6.24158e-10
4.4762e-10
3.38175e-10
2.85905e-10
2.91912e-10
3.34929e-10
4.17561e-10
5.69895e-10
7.63493e-10
9.4825e-10
1.11717e-09
1.61887e-09
1.0316e-08
5.2981e-08
4.91765e-08
4.8971e-08
2.42794e-06
1.21119e-08
1.34603e-09
7.66105e-10
7.80005e-10
6.42447e-10
4.92522e-10
3.65688e-10
2.59548e-10
1.92527e-10
1.53794e-10
1.41069e-10
1.46083e-10
1.7606e-10
2.33122e-10
3.19314e-10
4.35067e-10
5.67325e-10
9.64946e-10
5.80545e-09
4.93198e-08
7.92803e-08
4.90442e-08
2.35976e-08
1.16307e-08
8.44998e-10
5.02466e-10
5.06348e-10
4.62906e-10
4.32722e-10
3.50955e-10
2.22144e-10
1.51307e-10
1.06165e-10
7.80408e-11
6.9323e-11
7.86477e-11
1.02143e-10
1.42775e-10
2.0236e-10
2.92561e-10
4.60241e-10
9.46108e-10
8.23971e-09
6.67163e-08
7.24804e-08
3.65306e-08
1.12248e-08
5.29814e-10
4.07728e-10
5.00121e-10
7.41411e-10
8.3079e-10
5.88061e-10
2.8843e-10
1.79542e-10
1.08135e-10
6.4642e-11
4.29472e-11
3.57848e-11
3.98401e-11
5.56718e-11
8.74183e-11
1.48211e-10
2.42661e-10
2.87664e-10
2.87512e-10
4.83023e-09
3.56038e-08
2.38325e-08
1.0856e-08
4.27111e-10
4.22053e-10
8.77476e-10
1.27909e-09
1.33029e-09
8.45351e-10
3.3715e-10
2.12855e-10
1.27756e-10
6.98046e-11
3.79967e-11
2.313e-11
1.88178e-11
2.31379e-11
3.82902e-11
7.22014e-11
1.34564e-10
2.36726e-10
3.25445e-10
3.25743e-10
3.42893e-10
4.82343e-09
1.05884e-08
4.13548e-10
5.95675e-10
1.29826e-09
1.86273e-09
2.1597e-09
1.14095e-09
3.73332e-10
2.52508e-10
1.51099e-10
7.94765e-11
4.1559e-11
2.12257e-11
1.23744e-11
1.05458e-11
1.52808e-11
2.88213e-11
5.8581e-11
1.16494e-10
2.16708e-10
3.7862e-10
7.21704e-10
2.43292e-09
1.03892e-08
4.45612e-10
9.17419e-10
1.71534e-09
2.85622e-09
4.68092e-09
1.28453e-09
3.93255e-10
2.90999e-10
1.72606e-10
8.84286e-11
4.58235e-11
2.40126e-11
1.14035e-11
6.51594e-12
6.30166e-12
1.03061e-11
2.04385e-11
4.17084e-11
8.76427e-11
2.02976e-10
4.94835e-10
1.04552e-09
1.02413e-08
6.35977e-10
1.33769e-09
2.79623e-09
8.97537e-09
1.44314e-08
8.10184e-10
4.15199e-10
3.43996e-10
1.86926e-10
9.19507e-11
4.82042e-11
2.56911e-11
1.29631e-11
5.79989e-12
3.3943e-12
3.82305e-12
6.88712e-12
1.37077e-11
2.831e-11
6.2028e-11
1.45902e-10
3.33322e-10
1.02095e-08
9.70619e-10
3.25327e-09
1.53523e-08
5.27961e-08
2.96582e-08
4.32941e-10
4.37809e-10
3.81898e-10
1.85197e-10
8.86829e-11
4.72565e-11
2.64681e-11
1.38944e-11
6.59374e-12
2.7252e-12
1.69194e-12
2.28443e-12
4.18046e-12
8.34659e-12
1.80714e-11
3.86641e-11
7.80744e-11
1.03015e-08
3.08531e-09
2.46873e-08
1.41409e-07
2.85702e-07
1.83719e-08
4.36382e-10
5.00849e-10
3.76496e-10
1.6618e-10
7.7546e-11
4.28772e-11
2.53148e-11
1.40219e-11
6.98843e-12
3.04824e-12
1.08652e-12
8.4994e-13
1.3271e-12
2.50742e-12
4.57927e-12
9.35555e-12
1.78529e-11
1.07014e-08
1.28559e-08
1.33496e-07
6.71889e-07
4.5937e-07
4.47081e-10
4.49551e-10
5.73556e-10
3.46679e-10
1.37028e-10
6.19075e-11
3.50173e-11
2.21386e-11
1.32582e-11
6.99706e-12
3.21585e-12
1.12451e-12
4.17045e-13
4.44411e-13
7.58411e-13
1.40624e-12
2.49977e-12
4.21783e-12
1.24014e-08
4.35424e-08
2.72965e-07
6.87075e-07
3.73392e-07
4.50956e-10
5.84078e-10
6.27244e-10
3.00211e-10
1.04522e-10
4.49432e-11
2.62649e-11
1.76567e-11
1.1398e-11
6.56248e-12
3.1611e-12
1.31342e-12
2.89449e-13
1.67788e-13
2.40765e-13
4.1278e-13
7.05706e-13
1.11379e-12
1.38134e-08
7.26266e-08
3.90471e-07
6.86685e-07
5.90434e-08
4.83432e-10
8.74408e-10
6.04603e-10
2.26066e-10
7.47923e-11
3.09463e-11
1.80851e-11
1.26742e-11
8.80888e-12
5.55957e-12
2.95899e-12
1.35014e-12
3.38208e-13
8.23167e-14
7.71807e-14
1.27533e-13
2.0485e-13
2.98628e-13
1.60954e-08
1.0536e-07
6.35809e-07
3.94565e-07
1.57685e-09
6.67165e-10
1.1531e-09
5.08395e-10
1.46988e-10
5.23051e-11
2.01238e-11
1.18928e-11
8.50314e-12
6.03308e-12
4.12306e-12
2.50857e-12
1.26547e-12
3.9906e-13
6.26059e-14
2.85928e-14
3.34094e-14
5.55611e-14
7.74938e-14
1.93532e-08
1.49724e-07
6.35871e-07
3.338e-07
5.01083e-10
1.02524e-09
1.5633e-09
4.91167e-10
1.29708e-10
3.65068e-11
1.25825e-11
7.09815e-12
5.07562e-12
3.68981e-12
2.72022e-12
1.82758e-12
1.03809e-12
4.38445e-13
7.15984e-14
1.23638e-14
1.02111e-14
1.58247e-14
1.96086e-14
2.24546e-08
2.12934e-07
6.35809e-07
2.9961e-07
5.00222e-10
1.74794e-09
2.08558e-09
5.51295e-10
1.29242e-10
2.67135e-11
7.46292e-12
4.17334e-12
2.80595e-12
2.03912e-12
1.53145e-12
1.1418e-12
7.50522e-13
3.89511e-13
8.1463e-14
9.02782e-15
3.14415e-15
4.028e-15
5.21488e-15
2.50152e-08
2.40986e-07
6.35871e-07
1.43334e-07
5.01017e-10
3.21657e-09
2.55801e-09
6.28485e-10
1.33459e-10
2.14057e-11
4.39543e-12
2.27739e-12
1.51073e-12
1.01648e-12
7.4586e-13
5.97545e-13
4.5492e-13
2.88369e-13
8.45703e-14
1.03699e-14
1.47654e-15
1.195e-15
1.45488e-15
2.31051e-08
2.0463e-07
4.53019e-07
2.51623e-08
3.83811e-09
8.87026e-09
2.87333e-09
6.54061e-10
1.30223e-10
1.76271e-11
2.44603e-12
1.13355e-12
7.50435e-13
4.62166e-13
3.11423e-13
2.49897e-13
2.15479e-13
1.68879e-13
7.3064e-14
1.19938e-14
1.14439e-15
3.41474e-16
3.98264e-16
2.19538e-08
1.36272e-07
3.24191e-07
1.6701e-08
6.2741e-09
1.12837e-08
2.95009e-09
5.85179e-10
1.07155e-10
1.32953e-11
1.27711e-12
5.35023e-13
3.45856e-13
1.96966e-13
1.15088e-13
8.44586e-14
7.78995e-14
7.3239e-14
4.6457e-14
1.16353e-14
1.22035e-15
1.26644e-16
9.7572e-17
2.16976e-08
1.33654e-07
3.26476e-07
4.32953e-09
1.40178e-08
1.11087e-08
2.52241e-09
4.52341e-10
7.14129e-11
7.89889e-12
5.91457e-13
2.08208e-13
1.39314e-13
7.63044e-14
3.81881e-14
2.2914e-14
2.0348e-14
2.25617e-14
2.15166e-14
8.78378e-15
1.27429e-15
7.73306e-17
2.37983e-17
2.24191e-08
1.10686e-07
1.21099e-07
2.48046e-09
1.46409e-08
6.4422e-09
1.31034e-09
2.61933e-10
3.05289e-11
3.0271e-12
1.91387e-13
6.17721e-14
4.40684e-14
2.47059e-14
1.13089e-14
5.24554e-15
3.80881e-15
4.70531e-15
6.27529e-15
4.94589e-15
9.64652e-16
7.55139e-17
7.24902e-18
2.12685e-08
2.95728e-08
3.23885e-09
5.95412e-09
1.26766e-08
2.27128e-09
5.19983e-10
1.02544e-10
9.37984e-12
6.9222e-13
3.41112e-14
1.20784e-14
9.69326e-15
5.83323e-15
2.63695e-15
9.91343e-16
5.05899e-16
6.74204e-16
1.26061e-15
1.7947e-15
6.20248e-16
7.00094e-17
5.03225e-18
4.17488e-08
5.57528e-09
3.23713e-09
1.63894e-08
1.96082e-09
3.34436e-10
8.98664e-11
1.52161e-11
9.54556e-13
3.74594e-14
1.46714e-15
1.13747e-15
1.06636e-15
7.19348e-16
3.39632e-16
1.16894e-16
4.26382e-17
5.76606e-17
1.78235e-16
4.2413e-16
3.35321e-16
5.41736e-17
3.86158e-18
0.999518
0.999179
0.999096
0.980437
0.879021
0.887985
0.927099
0.950096
0.165678
0.158851
0.238201
0.449673
1.05831e-16
1.15322e-16
1.52177e-05
0.00437634
0.000179398
1.09733e-05
2.71697e-09
-9.06602e-15
0.001046
1.81675e-05
3.05509e-05
-4.37615e-09
0.0198458
0.0155652
0.00242721
6.77401e-05
0.0198443
0.0198425
0.0197874
0.019159
0.0115905
0.0111236
0.0122726
0.0149816
2.16475e-07
1.36427e-10
-1.37643e-23
-1.66957e-09
2.564e-05
3.72164e-05
3.7889e-05
7.4812e-06
4.088e-05
3.88808e-05
3.56588e-05
7.28913e-06
7.97849e-06
1.99721e-06
7.16625e-07
7.28056e-07
1.13547e-06
1.11474e-06
1.8418e-06
1.96412e-06
2.20968e-06
2.39138e-06
2.29997e-06
1.62247e-06
1.16917e-06
3.15636e-07
2.32871e-07
2.855e-07
2.32878e-07
2.32871e-07
2.32882e-07
8.08877e-07
2.32871e-07
2.32882e-07
2.32871e-07
4.34613e-06
1.09764e-05
1.01427e-05
6.75367e-06
5.66625e-06
1.93734e-05
1.93595e-05
1.93492e-05
1.21089e-05
2.35374e-08
1.52248e-07
1.14421e-06
3.21881e-06
6.14775e-08
6.98477e-08
2.0693e-08
8.36224e-10
9.86756e-09
8.03122e-08
9.80471e-08
9.68116e-08
5.53207e-09
7.72171e-09
6.15236e-08
9.39132e-08
4.03243e-09
5.90289e-09
2.22942e-08
3.08789e-08
2.16571e-09
3.08964e-09
3.7226e-09
2.91071e-09
5.43926e-10
6.60982e-10
7.04075e-10
7.03869e-10
1.33306e-10
1.44995e-10
1.73312e-10
1.81528e-10
2.73989e-11
3.20166e-11
3.54683e-11
3.87525e-11
6.40904e-12
7.16175e-12
8.48222e-12
9.24218e-12
1.58889e-12
1.81641e-12
2.03479e-12
2.29855e-12
3.74777e-13
4.13277e-13
4.84641e-13
5.15827e-13
8.82283e-14
9.65404e-14
1.00719e-13
1.11163e-13
2.25285e-14
2.16191e-14
2.33245e-14
2.31866e-14
5.33607e-15
5.3208e-15
5.24025e-15
5.55488e-15
1.44107e-15
1.33394e-15
1.39191e-15
1.39867e-15
3.84768e-16
3.65271e-16
3.62864e-16
3.95937e-16
9.95119e-17
8.57408e-17
8.95176e-17
9.58825e-17
2.05467e-17
1.97454e-17
1.95361e-17
2.09896e-17
4.41605e-18
3.73819e-18
3.636e-18
3.69305e-18
7.83671e-19
6.59571e-19
6.41662e-19
6.14741e-19
1.60325e-19
1.02981e-19
9.37032e-20
7.73878e-20
0.908001
0.992583
0.995416
0.988664
0.962937
0.989528
0.990974
0.989673
0.979606
0.982121
0.864221
0.849508
0.84384
0.86034
0.951668
0.951633
0.951702
0.951681
0.87038
0.968451
0.984115
0.995331
0.938348
0.852488
0.979545
0.99075
0.977503
0.954454
0.664999
0.350468
0.624551
0.94387
0.944146
0.943638
0.950749
0.951582
0.940424
0.935878
0.624769
0.455811
0.657377
0.794275
0.817566
0.890739
0.949405
0.783036
0.309649
0.0528935
0.0693004
0.581526
0.923535
0.944504
0.944782
0.95073
0.949722
0.928678
0.931613
0.0325832
0.00138863
0.0364496
0.192092
0.222191
0.385758
0.425059
0.0744292
6.87256e-31
-1.0527e-21
0.000139814
0.00300051
0.245584
0.59855
0.650747
0.51963
0.532899
0.634573
0.741832
-1.69564e-07
1.22237e-05
0.00719769
0.00278515
0.000517502
0.000592353
0.00856234
2.12235e-11
2.02957e-11
-6.10794e-18
-1.14275e-23
5.74481e-13
1.24624e-12
2.26192e-12
-1.97586e-06
4.7193e-05
0.000974567
0.0190246
0.0256291
1.95871e-05
8.82858e-07
0.00763664
0.0253911
0.00970696
8.52956e-10
1.05021e-10
2.21871e-11
2.12235e-11
2.22128e-09
3.82585e-05
1.45838e-06
2.03129e-06
2.27434e-05
8.09574e-05
5.04194e-05
4.78656e-05
9.91537e-05
0.000256931
0.000209835
0.000196364
0.000770583
0.0177863
0.0368773
0.0166804
0.00114859
0.00096108
0.000780495
0.000423764
0.000171023
0.00015937
0.000108877
0.000325324
0.000583651
0.00060924
0.000457975
0.000519269
0.00142233
0.0167484
0.00755135
0.000765003
0.00472665
0.0374531
0.0375541
0.0250797
0.013156
0.00638173
0.00456684
0.0033391
0.00080116
0.000609085
0.00081818
0.000507385
0.000739648
0.00123343
0.0022137
0.00255513
0.0134782
0.0134687
0.00754261
0.00129496
0.0142207
0.0368105
0.0362536
0.0249587
0.0201029
0.0188404
0.0182389
0.0156034
0.00721313
0.0011779
0.000412249
0.00189435
0.00255387
0.00255513
0.00255422
4.75054e-26
0.000537024
0.00180232
0.00130046
0.000198597
0.00644833
0.0117942
0.00921643
0.011039
0.0146003
0.017859
0.0152939
0.00326004
0.000397326
0.000427593
0.00221355
0.00252217
0.00247136
0.0025287
2.43537e-07
2.67345e-22
-1.63419e-10
0.000196308
0.000101875
3.47501e-07
3.71241e-07
1.32025e-10
2.2244e-05
0.00101732
0.00253962
0.0023166
0.00107976
0.000383921
0.000140966
4.58206e-05
0.000116175
0.000135748
0.000297734
-9.24931e-12
3.05459e-28
-1.82425e-10
4.03305e-16
2.2703e-05
5.6086e-06
-2.27573e-23
-4.26411e-22
5.70988e-23
-3.98905e-21
-7.04534e-09
-2.299e-08
-2.34853e-08
2.28568e-05
4.92175e-08
3.77883e-08
1.80119e-06
1.86137e-07
1.39849e-07
6.86278e-07
4.03964e-07
1.38742e-07
1.2069e-07
1.27382e-07
8.80781e-07
7.9957e-12
1.14762e-18
-7.79367e-12
0
3.51649e-06
7.31407e-06
7.60457e-06
3.68405e-06
3.91563e-07
2.31925e-06
1.84358e-06
7.31796e-07
1.62441e-06
2.92609e-06
2.90382e-06
2.33829e-06
1.58387e-07
1.16143e-06
9.25407e-06
1.03708e-05
1.01547e-05
8.67063e-06
1.01171e-05
1.02389e-05
1.00564e-05
4.13777e-06
3.79489e-08
3.80766e-08
3.08594e-07
3.55744e-07
2.74675e-06
9.02214e-06
4.88127e-07
8.01054e-07
2.15143e-06
8.09498e-06
8.13457e-06
7.68089e-06
5.41478e-06
6.4777e-06
5.00207e-06
2.94966e-06
2.43895e-06
9.65001e-07
1.30682e-07
3.84416e-08
3.81577e-08
3.82339e-08
1.71767e-06
1.5465e-05
9.93494e-06
4.95898e-07
4.90463e-07
8.94176e-07
2.40626e-06
1.25088e-06
3.0543e-07
4.44899e-07
8.32351e-08
3.03406e-07
6.12544e-08
1.15366e-07
2.00874e-06
1.72193e-06
3.82372e-08
3.8233e-08
3.82371e-08
1.26379e-05
2.1399e-05
1.88876e-05
1.00482e-05
2.45415e-05
2.42283e-05
8.19136e-06
9.13293e-07
8.14148e-08
5.32652e-08
5.31991e-08
5.31997e-08
5.3199e-08
1.14956e-06
8.35463e-06
8.35595e-06
6.83193e-06
6.22546e-06
1.82283e-05
2.77998e-05
2.12406e-05
8.8337e-06
1.3306e-05
4.27145e-05
4.27145e-05
4.27145e-05
3.47637e-05
1.61913e-05
4.20101e-06
2.45779e-06
2.37012e-07
5.31997e-08
7.96414e-07
5.86102e-06
2.25188e-05
4.02258e-05
4.02252e-05
4.02258e-05
1.97091e-05
3.13726e-06
5.80704e-07
7.38276e-06
3.09575e-05
4.27145e-05
4.27145e-05
4.27145e-05
4.27145e-05
4.24074e-05
1.30782e-05
2.69295e-07
8.08035e-07
8.04272e-07
3.73e-06
1.62124e-05
2.46464e-05
2.30376e-05
9.2394e-06
7.68746e-07
1.05244e-07
5.66554e-07
5.5053e-06
9.16982e-06
2.3864e-05
4.27115e-05
4.05359e-05
1.04823e-05
8.70936e-06
1.5442e-05
1.52312e-05
5.62941e-06
2.63178e-06
4.32205e-06
5.65803e-06
4.59506e-06
4.53296e-06
5.23436e-07
1.06834e-07
1.05254e-07
4.16152e-07
4.11117e-06
8.49554e-10
1.53108e-06
1.10583e-05
9.59595e-06
5.1578e-06
3.18526e-06
5.77154e-07
2.74978e-06
3.47469e-06
1.95098e-06
3.35186e-06
5.18703e-06
4.28338e-06
5.44776e-07
1.88256e-07
1.85526e-07
1.09725e-07
8.89713e-08
8.30713e-10
8.55443e-10
8.77383e-10
8.27587e-10
8.26084e-10
8.23995e-10
8.23562e-10
8.25063e-10
2.6345e-08
3.4278e-07
2.85368e-07
2.38181e-07
6.99379e-07
7.88357e-07
3.67109e-07
4.03693e-07
4.40084e-07
2.57676e-07
8.01834e-08
7.01639e-08
1.56778e-08
8.35616e-09
7.82706e-09
7.89202e-09
2.83546e-09
1.27681e-09
9.86699e-10
9.79836e-10
8.11981e-09
3.03294e-08
1.87599e-08
1.24377e-08
3.20003e-08
3.27353e-08
3.737e-07
4.40274e-07
2.59882e-07
7.83441e-08
7.23582e-08
3.035e-08
1.23921e-08
7.94921e-09
9.70926e-09
6.2393e-09
3.13678e-09
2.10534e-09
1.80231e-09
1.91346e-09
3.07969e-09
4.4557e-09
3.66918e-09
2.66199e-09
2.51326e-09
7.21693e-08
4.30774e-07
2.24446e-07
7.83248e-08
2.01475e-08
7.25823e-09
6.04423e-09
6.00444e-09
5.56716e-09
3.45387e-09
2.28984e-09
1.98559e-09
2.31939e-09
3.10633e-09
3.79481e-09
5.02426e-09
5.70746e-09
6.2142e-09
3.83637e-09
3.67433e-09
1.595e-07
1.989e-07
7.99838e-08
2.19357e-09
2.22653e-09
2.70649e-09
2.28679e-09
1.88084e-09
1.37381e-09
1.23136e-09
1.39817e-09
1.85627e-09
2.74529e-09
4.32526e-09
6.94196e-09
9.67127e-09
1.20403e-08
6.47683e-09
3.73857e-09
5.99547e-08
1.98331e-07
1.17592e-07
7.22224e-10
7.43504e-10
7.04153e-10
6.09334e-10
5.60333e-10
5.56261e-10
6.35818e-10
8.40744e-10
1.23849e-09
1.98934e-09
3.37633e-09
5.96977e-09
9.28964e-09
1.19868e-08
6.39858e-09
4.09028e-08
1.28372e-07
2.0111e-07
2.0171e-07
1.85343e-10
1.88929e-10
1.80273e-10
1.82963e-10
1.98732e-10
2.49988e-10
3.5585e-10
5.67671e-10
9.49181e-10
1.58988e-09
2.71364e-09
4.7003e-09
7.50303e-09
9.12292e-09
8.09757e-09
1.1328e-07
1.7994e-07
1.5643e-07
2.01632e-07
4.09749e-11
4.5724e-11
5.15789e-11
6.14362e-11
8.46209e-11
1.24378e-10
2.02373e-10
3.73302e-10
7.77069e-10
1.56599e-09
2.81795e-09
4.35959e-09
5.98177e-09
7.88953e-09
1.25285e-08
9.3989e-08
1.80263e-07
1.12322e-07
2.00805e-07
1.02362e-11
1.22697e-11
1.48762e-11
1.89669e-11
1.8571e-11
2.64844e-11
5.58001e-11
1.62004e-10
4.96634e-10
1.39746e-09
3.19838e-09
5.88175e-09
8.09108e-09
7.45898e-09
1.05048e-08
5.08629e-08
9.80227e-08
6.04343e-08
1.85496e-07
2.52224e-12
3.05804e-12
3.45827e-12
2.94359e-12
3.19686e-12
5.67792e-12
1.76828e-11
6.80567e-11
2.69183e-10
9.76781e-10
3.19627e-09
7.05358e-09
1.18761e-08
1.22147e-08
1.16906e-08
4.76286e-09
1.10575e-08
1.88778e-08
8.77076e-08
5.68883e-13
6.61018e-13
6.89515e-13
5.67006e-13
7.97157e-13
2.00471e-12
7.08197e-12
2.80183e-11
1.12697e-10
4.02732e-10
3.47863e-09
8.53779e-09
2.22488e-08
2.69612e-08
1.10054e-08
4.48676e-09
5.50691e-09
1.71552e-08
8.26034e-08
1.14792e-13
1.17139e-13
1.28337e-13
1.74608e-13
3.356e-13
1.08736e-12
3.62863e-12
1.25966e-11
4.30648e-11
1.59086e-10
2.82057e-09
1.19159e-08
2.88417e-08
4.18186e-08
2.09312e-08
4.48654e-09
4.50343e-09
2.06153e-08
1.14248e-07
2.44903e-14
2.57494e-14
3.62219e-14
7.64571e-14
2.21381e-13
6.82288e-13
2.15237e-12
7.59434e-12
3.22956e-11
1.72221e-10
3.00589e-09
1.11299e-08
2.86312e-08
4.74502e-08
4.72845e-08
6.97948e-09
4.51557e-09
1.73549e-08
1.18005e-07
5.45484e-15
7.35946e-15
1.48431e-14
4.32474e-14
1.37282e-13
4.67799e-13
1.46509e-12
4.88977e-12
2.13769e-11
1.27566e-10
1.02646e-09
6.71448e-09
1.77086e-08
4.24628e-08
4.77519e-08
4.24417e-08
1.14605e-08
1.8571e-08
9.79728e-08
1.64052e-15
2.67773e-15
7.25286e-15
2.50785e-14
9.13115e-14
3.2544e-13
1.09071e-12
3.45062e-12
1.06602e-11
3.6998e-11
1.24006e-10
1.27292e-09
8.2734e-09
2.13605e-08
4.75071e-08
4.76326e-08
3.62912e-08
5.9345e-08
8.42015e-08
4.52216e-16
9.06613e-16
3.02959e-15
1.17286e-14
4.75629e-14
1.853e-13
6.73128e-13
2.10396e-12
7.06664e-12
2.89412e-11
1.36154e-10
6.71251e-10
1.8287e-09
8.29303e-09
2.86042e-08
4.77141e-08
5.12688e-08
1.31595e-07
8.31264e-08
1.21806e-16
2.63062e-16
9.44797e-16
4.163e-15
1.87204e-14
8.24305e-14
3.41939e-13
1.26855e-12
4.13995e-12
1.5216e-11
7.56537e-11
4.64808e-10
1.23717e-09
2.07287e-09
6.91997e-09
2.26938e-08
5.29202e-08
1.32699e-07
3.28781e-07
2.39761e-17
5.11929e-17
1.92449e-16
9.38951e-16
4.87425e-15
2.4281e-14
1.15461e-13
5.10309e-13
2.08134e-12
7.27638e-12
2.71089e-11
1.44123e-10
9.11773e-10
1.83968e-09
2.86633e-09
5.67604e-09
3.90681e-08
9.71564e-08
3.80118e-07
4.10197e-18
6.16044e-18
2.13265e-17
1.14856e-16
7.15713e-16
5.1899e-15
3.10916e-14
1.70678e-13
8.21199e-13
3.35292e-12
1.14637e-11
4.9347e-11
2.89755e-10
1.49974e-09
2.71692e-09
3.8637e-09
1.49805e-08
6.56429e-08
3.80917e-07
5.50594e-19
5.91184e-19
1.39946e-18
7.40669e-18
5.80301e-17
4.9384e-16
4.20179e-15
3.14215e-14
1.95539e-13
1.08149e-12
4.96326e-12
1.73414e-11
8.10669e-11
4.64694e-10
2.07078e-09
3.56044e-09
7.58489e-09
5.09794e-08
3.7975e-07
6.02959e-20
4.78388e-20
6.16731e-20
1.98134e-19
1.55338e-18
1.72491e-17
2.01412e-16
2.18668e-15
2.01027e-14
1.46194e-13
8.51275e-13
4.02064e-12
1.49014e-11
5.99097e-11
2.85236e-10
1.70369e-09
4.65929e-09
4.09588e-08
2.07642e-07
)
;

boundaryField
{
    leftWall
    {
        type            zeroGradient;
    }
    rightWall
    {
        type            zeroGradient;
    }
    lowerWall
    {
        type            zeroGradient;
    }
    atmosphere
    {
        type            inletOutlet;
        inletValue      uniform 0;
        value           nonuniform List<scalar> 
46
(
4.17488e-08
5.57528e-09
3.23713e-09
1.63894e-08
0
0
0
0
0
0
0
0
0
0
0
0
0
0
0
4.24129e-16
3.35321e-16
5.41736e-17
0
0
0
0
0
0
0
0
0
0
0
0
0
0
0
0
0
0
0
0
1.70369e-09
4.65929e-09
4.09588e-08
2.07642e-07
)
;
    }
    defaultFaces
    {
        type            empty;
    }
}


// ************************************************************************* //
