/*--------------------------------*- C++ -*----------------------------------*\
| =========                 |                                                 |
| \\      /  F ield         | OpenFOAM: The Open Source CFD Toolbox           |
|  \\    /   O peration     | Version:  2312                                  |
|   \\  /    A nd           | Website:  www.openfoam.com                      |
|    \\/     M anipulation  |                                                 |
\*---------------------------------------------------------------------------*/
FoamFile
{
    version     2.0;
    format      ascii;
    arch        "LSB;label=32;scalar=64";
    class       volScalarField;
    location    "5.6";
    object      alpha.water;
}
// * * * * * * * * * * * * * * * * * * * * * * * * * * * * * * * * * * * * * //

dimensions      [0 0 0 0 0 0 0];

internalField   nonuniform List<scalar> 
2268
(
3.06512e-07
3.03887e-07
2.64137e-07
1.51817e-07
3.43176e-09
5.60103e-10
5.5975e-10
4.83583e-10
3.40524e-10
2.36947e-10
1.76657e-10
1.37307e-10
1.14951e-10
1.03364e-10
1.01782e-10
1.10198e-10
1.34401e-10
1.80374e-10
2.62662e-10
4.48071e-10
9.81808e-10
1.35125e-09
1.37397e-09
2.08918e-07
1.83621e-07
8.14379e-08
1.43388e-08
1.28623e-09
1.25202e-09
9.91721e-10
7.93989e-10
5.29363e-10
3.93987e-10
3.37797e-10
3.2901e-10
3.29453e-10
3.15265e-10
2.73199e-10
2.37352e-10
2.51474e-10
3.21e-10
4.89558e-10
6.90885e-10
1.08918e-09
1.31706e-09
1.28769e-09
2.52425e-08
2.13018e-09
6.99124e-10
1.64538e-09
3.54193e-09
3.90185e-09
5.01789e-09
3.00192e-09
1.56573e-09
9.40209e-10
7.60088e-10
8.20512e-10
9.85507e-10
1.00681e-09
9.23318e-10
7.98344e-10
5.59571e-10
5.21428e-10
5.45582e-10
7.35971e-10
9.99551e-10
9.78524e-10
9.7601e-10
2.12746e-20
6.11946e-10
6.92066e-10
5.7925e-10
7.97658e-10
1.19736e-09
6.72095e-09
3.36819e-09
1.03343e-09
5.04057e-10
5.24151e-10
6.64783e-10
7.38437e-10
6.71197e-10
6.17703e-10
4.94613e-10
3.95222e-10
4.28538e-10
4.717e-10
5.61847e-10
6.20352e-10
6.02958e-10
6.06156e-10
2.11526e-20
-5.66401e-20
-8.48462e-20
2.2136e-19
1.16069e-19
-3.9568e-15
-2.8986e-13
1.3863e-19
-1.00737e-13
-1.78448e-13
-2.58971e-13
-2.39859e-13
-2.11451e-13
-2.16796e-20
-2.35975e-21
-9.23214e-29
-5.00055e-14
9.79925e-12
1.35039e-11
-1.13483e-12
8.77447e-23
-8.77435e-23
6.46235e-28
0.301729
0.296047
0.285565
0.270648
0.249899
0.2224
0.190372
0.156273
0.124139
0.0963666
0.0731146
0.0551387
0.04469
0.0391278
0.033209
0.0236482
0.0053621
1.37583e-15
-7.50826e-11
0
0.00856753
0.0199852
0.0359322
0.977875
0.976373
0.972322
0.964866
0.955634
0.941373
0.921886
0.895813
0.863367
0.828511
0.793324
0.757406
0.720913
0.683918
0.647485
0.622494
0.561785
0.503112
0.510755
0.560468
0.605344
0.63715
0.665392
0.999212
0.999452
0.999452
0.999434
0.999294
0.999298
0.999534
0.999768
0.999783
0.99969
0.9996
0.99957
0.999684
0.999787
0.999639
0.995241
0.976378
0.950738
0.946438
0.962911
0.968447
0.965707
0.963865
0.00880992
0.00710988
0.00365086
0.00193466
0.00361205
0.00461261
0.00594116
0.00697811
0.00777922
0.00773066
0.00771462
0.00770017
0.00524463
0.00367217
0.00369782
0.00374504
0.00314137
0.00245132
0.00249833
0.00625479
-2.95507e-06
-4.22054e-06
-3.22465e-06
-5.71119e-06
3.35175e-21
0.000253158
0.000588094
0.000702105
0.000453897
0.000456763
0.000452985
0.000455339
0.000451613
0.000454815
0.000555819
0.000111956
0.000110812
0.000113477
0.43108
0.420612
0.350387
0.243803
0.131294
0.0503945
0.00961523
0.00106633
0.00719492
0.026369
0.0433853
0.0493632
0.055607
0.0548531
0.0205742
0.00366976
0.00981958
0.0141376
0.00298763
0.828858
0.968258
0.911226
0.841838
0.722213
0.573325
0.486347
0.475276
0.545761
0.652766
0.697839
0.695205
0.632324
0.614876
0.485866
0.339793
0.352505
0.439886
0.379039
0.974581
0.990149
0.990113
0.990147
0.978719
0.929375
0.909075
0.919489
0.943948
0.969994
0.977892
0.975059
0.925158
0.893046
0.892711
0.642816
0.782749
0.939355
0.693718
0.988274
0.988188
0.986297
0.986651
0.988682
0.98871
0.981469
0.966686
0.97232
0.989502
0.989503
0.989502
0.979229
0.921913
0.858779
0.647227
0.825076
0.951711
0.740966
0.954688
0.99008
0.991319
0.986986
0.987197
0.991036
0.991033
0.986003
0.982067
0.989503
0.989501
0.989499
0.988527
0.921031
0.811938
0.749499
0.896203
0.951607
0.774205
0.905744
0.976507
0.995366
0.988136
0.987602
0.989627
0.991018
0.991013
0.989922
0.988662
0.960861
0.97643
0.904865
0.855873
0.901973
0.906431
0.951784
0.95178
0.837878
0.9975
0.999338
0.999452
0.999358
0.998839
0.996128
0.996824
0.999586
0.999659
0.998483
0.998038
0.99911
0.99978
0.999787
0.999787
0.999786
0.999765
0.999707
0.999612
0.999656
0.99972
0.99977
0.999777
0.948638
0.955535
0.947713
0.926073
0.898957
0.899405
0.908119
0.923785
0.923889
0.908884
0.903379
0.911742
0.937311
0.971957
0.986859
0.97161
0.9601
0.973178
0.973478
0.978178
0.98156
0.965952
0.926665
0.370619
0.345758
0.339097
0.298725
0.221104
0.20578
0.223315
0.248726
0.272109
0.290336
0.281712
0.27549
0.275392
0.245066
0.228775
0.235198
0.273922
0.294344
0.30172
0.298825
0.280628
0.24783
0.22522
-5.78056e-20
3.62309e-20
4.09135e-20
2.38619e-20
2.38481e-20
2.38619e-20
1.36092e-12
-5.67529e-25
-1.76677e-11
-3.39677e-27
-2.28453e-26
5.36244e-24
1.87567e-23
-3.94337e-11
-1.22766e-09
-1.30654e-08
-1.87862e-08
-3.59879e-08
-9.92879e-08
-3.04164e-10
-1.34544e-07
-3.39958e-07
-2.16526e-07
-4.35516e-21
8.45812e-38
-6.72815e-22
-5.29393e-24
7.33796e-06
2.41907e-05
1.84757e-05
2.67064e-05
3.37833e-05
9.60583e-06
1.17517e-06
2.34313e-05
3.00498e-05
3.99565e-05
7.59928e-05
0.000104778
6.69313e-05
4.43744e-05
0.000144699
0.00076079
0.000813961
0.000315639
0.000246587
1.34508e-05
2.74723e-05
4.31053e-05
0.000108927
0.000143818
0.000135895
0.000221054
4.93712e-05
3.97126e-05
0.00011462
0.000211678
0.00021757
0.000151748
7.66616e-05
0.000131926
0.000268969
0.000293441
0.000233898
0.000186209
0.000198671
0.00356054
0.00918847
0.00441192
5.9621e-05
6.74021e-05
7.14093e-05
0.00015026
0.000878216
0.00397729
0.00402687
0.00154288
0.00146597
0.00192329
0.00192356
0.00123959
0.000480895
0.000104714
0.000120069
0.000350097
0.00161437
0.00675296
0.00810107
0.00344278
0.00328098
0.0114764
0.0197912
0.000258099
0.000124297
0.000861539
0.00398006
0.00459065
0.00459221
0.00459067
0.00283241
0.00197135
0.00166425
0.00107381
0.000668213
0.000304384
0.000149716
0.000423902
0.00119436
0.00230129
0.00851687
0.00944595
0.00945577
0.00471374
0.00875249
0.0198458
0.000269795
0.000228995
0.000719948
0.00401319
0.00405786
0.00120805
0.00020387
3.67212e-08
3.33035e-08
3.63378e-08
3.32041e-08
3.04813e-07
3.65338e-05
0.000198155
0.00048669
0.000582757
0.000489653
1.48912e-06
0.000833293
0.000962896
0.00263644
0.00874925
0.0112325
0.000270119
0.000119651
0.000310441
0.00134682
0.000583524
8.26843e-07
4.01952e-07
9.56729e-07
4.19585e-07
4.17507e-07
7.15798e-07
8.34999e-07
3.23291e-07
3.44096e-08
3.48736e-08
3.46683e-08
3.51352e-08
7.52818e-07
1.99187e-06
2.60973e-06
6.47674e-05
0.000821866
0.000162825
7.98663e-05
2.68754e-06
2.27008e-06
1.51732e-08
2.02593e-08
3.98601e-07
3.97524e-07
1.51404e-07
2.34439e-07
6.63292e-07
1.23173e-06
1.23581e-06
2.28094e-07
4.05117e-08
2.31587e-07
3.67224e-06
6.43352e-06
3.61629e-06
1.93241e-06
2.10278e-06
1.24072e-05
1.66018e-05
1.62189e-05
1.44425e-08
1.42535e-08
1.40245e-08
1.38214e-08
8.86574e-09
3.75102e-08
6.27947e-08
6.60929e-08
4.98927e-07
1.12559e-06
1.23292e-06
1.02853e-06
1.4653e-07
3.76065e-08
1.51357e-06
1.04898e-05
1.15423e-05
7.24222e-06
2.07956e-06
3.05688e-05
4.17467e-05
3.63309e-05
3.99605e-05
7.83595e-08
8.49243e-08
8.63224e-08
1.90841e-08
8.88381e-09
8.87743e-09
1.03339e-08
1.53316e-07
4.4082e-07
2.29991e-07
2.09298e-07
7.9318e-09
1.25067e-08
3.77035e-08
2.91171e-06
1.03707e-05
1.01976e-05
2.55454e-06
1.7435e-05
4.10505e-05
4.17281e-05
4.12781e-05
2.1049e-05
1.46741e-07
1.32744e-07
7.25785e-08
1.10736e-08
8.88309e-09
8.87857e-09
5.77298e-08
7.21834e-08
1.28548e-08
3.83093e-09
4.50504e-09
7.60509e-09
1.6299e-08
5.20664e-08
4.41207e-09
9.59299e-07
1.90158e-09
7.1713e-07
3.04735e-05
4.14062e-05
3.33034e-05
5.50465e-06
9.9034e-07
1.33161e-07
9.02249e-08
3.57204e-08
9.08465e-09
8.88506e-09
1.5344e-08
2.73616e-08
1.66242e-08
7.52736e-09
3.36349e-09
2.45065e-09
4.41819e-09
5.89127e-09
4.70442e-09
1.79228e-09
1.73446e-09
1.73321e-09
3.51969e-07
1.06809e-05
1.36005e-05
2.4052e-07
9.72686e-07
1.061e-06
4.42792e-08
2.72304e-08
1.21477e-08
8.65668e-09
8.88112e-09
8.89342e-09
5.62069e-09
2.65463e-09
1.73021e-09
1.83311e-09
2.27374e-09
2.10067e-09
2.65477e-09
2.67004e-09
3.43626e-09
3.97778e-09
3.00736e-09
6.27709e-08
5.44879e-09
2.34186e-08
3.94742e-07
1.52919e-06
1.59266e-06
1.2036e-08
6.13954e-09
4.98487e-09
5.75889e-09
5.74786e-09
4.52677e-09
2.88474e-09
1.80831e-09
1.42468e-09
1.43691e-09
1.64673e-09
2.0019e-09
2.57511e-09
3.57599e-09
4.83733e-09
5.52064e-09
4.67346e-09
3.26874e-09
6.50583e-09
3.82987e-08
4.21805e-06
1.52281e-05
2.39657e-06
1.21788e-08
4.11296e-09
3.23375e-09
3.78807e-09
3.60757e-09
2.75781e-09
1.9231e-09
1.34401e-09
1.02313e-09
9.39112e-10
1.06336e-09
1.3707e-09
1.89612e-09
2.75975e-09
3.69303e-09
4.2297e-09
3.15229e-09
2.43065e-09
9.12663e-09
4.53929e-08
5.47788e-06
1.61961e-05
1.3399e-05
1.27702e-08
3.13925e-09
2.12136e-09
2.38494e-09
2.1183e-09
1.63113e-09
1.17689e-09
8.30533e-10
6.21077e-10
5.46185e-10
5.96295e-10
7.457e-10
1.00496e-09
1.38771e-09
1.86255e-09
2.17578e-09
1.82658e-09
2.03916e-09
1.29943e-08
3.62023e-08
1.58582e-07
9.50385e-06
1.52937e-05
1.26467e-08
2.14566e-09
1.29788e-09
1.40468e-09
1.18328e-09
8.87848e-10
6.33457e-10
4.53103e-10
3.41295e-10
2.87548e-10
2.92246e-10
3.34581e-10
4.16454e-10
5.67943e-10
7.61989e-10
9.48881e-10
1.11306e-09
1.56483e-09
1.02899e-08
5.20109e-08
4.97537e-08
4.92876e-08
2.90747e-06
1.21262e-08
1.36705e-09
7.78191e-10
7.92704e-10
6.52213e-10
4.98734e-10
3.69349e-10
2.61902e-10
1.93956e-10
1.5465e-10
1.4149e-10
1.46191e-10
1.75813e-10
2.32626e-10
3.18784e-10
4.34807e-10
5.67754e-10
9.28376e-10
5.39827e-09
4.91314e-08
7.80696e-08
4.93645e-08
2.35968e-08
1.16383e-08
8.56896e-10
5.08437e-10
5.11769e-10
4.65662e-10
4.33348e-10
3.51347e-10
2.23102e-10
1.51995e-10
1.06678e-10
7.84096e-11
6.94824e-11
7.86171e-11
1.01988e-10
1.42526e-10
2.02103e-10
2.92285e-10
4.60281e-10
9.02513e-10
7.86935e-09
6.65083e-08
7.20849e-08
3.60787e-08
1.12238e-08
5.37358e-10
4.10064e-10
5.00184e-10
7.34696e-10
8.25733e-10
5.86686e-10
2.89114e-10
1.80004e-10
1.08598e-10
6.49878e-11
4.31524e-11
3.58685e-11
3.98427e-11
5.55952e-11
8.72467e-11
1.47851e-10
2.42202e-10
2.89545e-10
2.88968e-10
4.77981e-09
3.57033e-08
2.40494e-08
1.0849e-08
4.2978e-10
4.22075e-10
8.70405e-10
1.27493e-09
1.32675e-09
8.4412e-10
3.3775e-10
2.13229e-10
1.28158e-10
7.01486e-11
3.82132e-11
2.32478e-11
1.8856e-11
2.31227e-11
3.82023e-11
7.19837e-11
1.34139e-10
2.35844e-10
3.24364e-10
3.24633e-10
3.58099e-10
4.86934e-09
1.05828e-08
4.14662e-10
5.91883e-10
1.29694e-09
1.85804e-09
2.15158e-09
1.13961e-09
3.73311e-10
2.52743e-10
1.51443e-10
7.97985e-11
4.17624e-11
2.1346e-11
1.24354e-11
1.05587e-11
1.52579e-11
2.87399e-11
5.83671e-11
1.16014e-10
2.15759e-10
3.75105e-10
7.18777e-10
2.40444e-09
1.03612e-08
4.45072e-10
9.1565e-10
1.69988e-09
2.81215e-09
4.62647e-09
1.28235e-09
3.93236e-10
2.91102e-10
1.72802e-10
8.86652e-11
4.59896e-11
2.41127e-11
1.14666e-11
6.54308e-12
6.30359e-12
1.02851e-11
2.03782e-11
4.15606e-11
8.72657e-11
2.01868e-10
4.91323e-10
1.03806e-09
1.02169e-08
6.34841e-10
1.33643e-09
2.83774e-09
8.99307e-09
1.43222e-08
7.94079e-10
4.14201e-10
3.44178e-10
1.86918e-10
9.20319e-11
4.8301e-11
2.57638e-11
1.30105e-11
5.82878e-12
3.40407e-12
3.82144e-12
6.87333e-12
1.36705e-11
2.82122e-11
6.16453e-11
1.45303e-10
3.31112e-10
1.01782e-08
9.74178e-10
3.30208e-09
1.54416e-08
5.06201e-08
2.93031e-08
4.3298e-10
4.37979e-10
3.81382e-10
1.85018e-10
8.85997e-11
4.72652e-11
2.65014e-11
1.39252e-11
6.61378e-12
2.73682e-12
1.69431e-12
2.28256e-12
4.17306e-12
8.32564e-12
1.80078e-11
3.83906e-11
7.76397e-11
1.02693e-08
3.16625e-09
2.51373e-08
1.3199e-07
2.80606e-07
1.82357e-08
4.36922e-10
5.00684e-10
3.75329e-10
1.65704e-10
7.73997e-11
4.28409e-11
2.53066e-11
1.40331e-11
6.99973e-12
3.05502e-12
1.09012e-12
8.49974e-13
1.32593e-12
2.50337e-12
4.56806e-12
9.32953e-12
1.77673e-11
1.06932e-08
1.34155e-08
1.28522e-07
6.74264e-07
4.51642e-07
4.74117e-10
4.50867e-10
5.72308e-10
3.44945e-10
1.36379e-10
6.1689e-11
3.49432e-11
2.21189e-11
1.32534e-11
6.99946e-12
3.21863e-12
1.12613e-12
4.17142e-13
4.44481e-13
7.58257e-13
1.40472e-12
2.48726e-12
4.20077e-12
1.24627e-08
4.4165e-08
2.69537e-07
6.87075e-07
3.69338e-07
4.52527e-10
5.86791e-10
6.24112e-10
2.98225e-10
1.03838e-10
4.47239e-11
2.61758e-11
1.76191e-11
1.13921e-11
6.55912e-12
3.16088e-12
1.3129e-12
2.89371e-13
1.67888e-13
2.40944e-13
4.12376e-13
7.05546e-13
1.10995e-12
1.40198e-08
7.40452e-08
3.86076e-07
6.86685e-07
5.72311e-08
4.88429e-10
8.73965e-10
6.0006e-10
2.23689e-10
7.42083e-11
3.07544e-11
1.80057e-11
1.26523e-11
8.7815e-12
5.554e-12
2.95764e-12
1.34931e-12
3.37563e-13
8.2318e-14
7.72178e-14
1.27717e-13
2.04127e-13
2.97582e-13
1.63761e-08
1.04572e-07
6.35809e-07
3.91246e-07
1.84596e-09
6.73852e-10
1.15007e-09
5.04512e-10
1.45761e-10
5.18527e-11
2.00155e-11
1.1852e-11
8.44535e-12
6.01466e-12
4.11576e-12
2.50639e-12
1.26461e-12
3.98041e-13
6.24839e-14
2.86074e-14
3.33881e-14
5.55947e-14
7.72161e-14
1.97066e-08
1.49658e-07
6.35871e-07
3.28988e-07
4.98351e-10
1.03354e-09
1.55852e-09
4.88744e-10
1.28914e-10
3.62707e-11
1.24105e-11
7.03625e-12
5.0485e-12
3.67522e-12
2.71293e-12
1.82489e-12
1.03761e-12
4.37301e-13
7.13236e-14
1.23572e-14
1.023e-14
1.57816e-14
1.95494e-14
2.29477e-08
2.12978e-07
6.35809e-07
2.96559e-07
4.97552e-10
1.74239e-09
2.07868e-09
5.46008e-10
1.27757e-10
2.64549e-11
7.40167e-12
4.14348e-12
2.78937e-12
2.02918e-12
1.52611e-12
1.1394e-12
7.49866e-13
3.89027e-13
8.11402e-14
8.99826e-15
3.14493e-15
4.03122e-15
5.19853e-15
2.54715e-08
2.44681e-07
6.35871e-07
1.44929e-07
5.37109e-10
3.22861e-09
2.55188e-09
6.23277e-10
1.32029e-10
2.12479e-11
4.35782e-12
2.25993e-12
1.50048e-12
1.01068e-12
7.42706e-13
5.95886e-13
4.54286e-13
2.88171e-13
8.42683e-14
1.03203e-14
1.475e-15
1.19386e-15
1.45078e-15
2.36704e-08
2.10144e-07
4.64168e-07
2.51918e-08
3.84539e-09
8.88201e-09
2.85882e-09
6.47765e-10
1.29376e-10
1.74934e-11
2.4249e-12
1.12494e-12
7.44939e-13
4.59203e-13
3.09891e-13
2.4907e-13
2.15082e-13
1.6887e-13
7.28644e-14
1.19419e-14
1.13998e-15
3.41603e-16
3.97266e-16
2.20689e-08
1.38705e-07
3.23792e-07
1.5927e-08
6.19978e-09
1.12703e-08
2.94757e-09
5.8097e-10
1.06385e-10
1.31826e-11
1.26609e-12
5.30769e-13
3.43202e-13
1.9558e-13
1.14437e-13
8.41408e-14
7.7746e-14
7.32173e-14
4.6401e-14
1.15932e-14
1.21465e-15
1.26439e-16
9.74211e-17
2.17203e-08
1.34982e-07
3.26514e-07
4.55459e-09
1.39993e-08
1.11121e-08
2.51606e-09
4.50825e-10
7.07367e-11
7.82311e-12
5.85934e-13
2.06533e-13
1.38219e-13
7.57362e-14
3.79447e-14
2.28158e-14
2.03045e-14
2.25398e-14
2.15305e-14
8.76287e-15
1.26881e-15
7.70547e-17
2.37046e-17
2.23558e-08
1.14427e-07
1.35332e-07
2.53988e-09
1.46053e-08
6.43855e-09
1.3018e-09
2.58943e-10
3.03055e-11
2.99704e-12
1.8951e-13
6.12701e-14
4.37223e-14
2.45199e-14
1.12317e-14
5.2191e-15
3.80132e-15
4.70405e-15
6.28662e-15
4.9429e-15
9.61745e-16
7.51741e-17
7.22748e-18
2.13649e-08
3.29913e-08
3.23909e-09
5.74822e-09
1.26805e-08
2.27663e-09
5.17903e-10
1.02387e-10
9.33033e-12
6.84903e-13
3.37675e-14
1.19791e-14
9.61667e-15
5.78945e-15
2.61866e-15
9.85733e-16
5.04974e-16
6.75091e-16
1.26296e-15
1.79785e-15
6.18205e-16
6.96818e-17
5.00407e-18
4.03041e-08
5.12304e-09
3.23718e-09
1.63141e-08
1.95455e-09
3.32196e-10
8.944e-11
1.51463e-11
9.48456e-13
3.70768e-14
1.45361e-15
1.12781e-15
1.0578e-15
7.1397e-16
3.37339e-16
1.16232e-16
4.25414e-17
5.77145e-17
1.79019e-16
4.26124e-16
3.35082e-16
5.39882e-17
3.83351e-18
0.999782
0.999409
0.999292
0.970262
0.889831
0.904829
0.942821
0.960462
0.181171
0.176479
0.281267
0.51457
9.56264e-17
1.09898e-16
5.97539e-05
0.0112591
0.000154333
7.03418e-06
2.84318e-09
-3.01968e-16
0.000860477
7.91861e-06
1.07009e-05
-2.06598e-09
0.0197936
0.0153647
0.00223044
3.73676e-05
0.0198458
0.0198458
0.0197281
0.0186847
0.0112958
0.0109039
0.0121787
0.0150865
4.86234e-07
5.72363e-10
4.80985e-10
1.50228e-05
2.12064e-05
3.66975e-05
3.64322e-05
2.28355e-05
4.07703e-05
4.05497e-05
3.63284e-05
1.4666e-05
7.49858e-06
1.53721e-06
7.64545e-07
7.56582e-07
1.19431e-06
1.17654e-06
1.88764e-06
2.01256e-06
2.3749e-06
2.36395e-06
2.35033e-06
1.15088e-06
7.64093e-07
2.33434e-07
2.3287e-07
3.29983e-07
2.32871e-07
2.3287e-07
2.32871e-07
1.59292e-06
2.32871e-07
2.32871e-07
2.32871e-07
6.26438e-06
1.10019e-05
1.03554e-05
6.59773e-06
5.80606e-06
1.93574e-05
1.93472e-05
1.93358e-05
1.1495e-05
2.35355e-08
1.50504e-07
1.04067e-06
3.01914e-06
6.1332e-08
6.91794e-08
2.34368e-08
8.36224e-10
9.01753e-09
7.71886e-08
9.76325e-08
9.7589e-08
5.25065e-09
6.56267e-09
5.82207e-08
9.375e-08
3.84884e-09
5.55892e-09
2.13124e-08
3.1118e-08
2.13081e-09
3.04484e-09
3.71482e-09
2.89306e-09
5.37844e-10
6.58198e-10
6.94733e-10
7.00954e-10
1.32284e-10
1.43378e-10
1.72188e-10
1.78944e-10
2.72294e-11
3.1848e-11
3.49967e-11
3.8421e-11
6.37406e-12
7.0801e-12
8.42947e-12
9.15916e-12
1.57999e-12
1.80743e-12
2.00605e-12
2.27716e-12
3.7281e-13
4.08318e-13
4.8149e-13
5.10939e-13
8.77751e-14
9.60278e-14
9.92387e-14
1.10251e-13
2.23905e-14
2.13661e-14
2.3159e-14
2.27747e-14
5.30905e-15
5.29164e-15
5.16938e-15
5.51112e-15
1.43303e-15
1.32e-15
1.38378e-15
1.37631e-15
3.82884e-16
3.63475e-16
3.58305e-16
3.93981e-16
9.89673e-17
8.48805e-17
8.90718e-17
9.43265e-17
2.04725e-17
1.96478e-17
1.9281e-17
2.08558e-17
4.37663e-18
3.69705e-18
3.61262e-18
3.63183e-18
7.78999e-19
6.56225e-19
6.31775e-19
6.08077e-19
1.59131e-19
1.00897e-19
9.26695e-20
7.64168e-20
0.911129
0.992024
0.995412
0.988039
0.962697
0.989848
0.991014
0.989771
0.979895
0.978802
0.846343
0.837474
0.846336
0.86409
0.951763
0.951725
0.951805
0.951785
0.869637
0.96991
0.985927
0.995303
0.93474
0.85955
0.981532
0.990997
0.97735
0.944443
0.620858
0.322974
0.677283
0.944957
0.945177
0.944187
0.950855
0.951686
0.940306
0.937109
0.669166
0.517158
0.704845
0.803683
0.821519
0.8992
0.950433
0.754783
0.265737
0.0394834
0.0891518
0.628691
0.925335
0.945384
0.945399
0.949218
0.947904
0.928662
0.930808
0.0480923
0.00536928
0.0544463
0.208278
0.234375
0.395191
0.41132
0.0596971
1.61621e-31
-6.56997e-22
0.000167377
0.0043344
0.243088
0.546388
0.577372
0.451257
0.481829
0.61152
0.723914
-1.1939e-07
-4.33681e-21
0.00642105
0.00199131
0.000855864
0.000950224
0.00898691
1.77557e-11
1.69762e-11
-5.44463e-18
-2.3722e-23
3.48014e-14
1.11706e-13
3.22759e-13
2.52343e-22
8.04497e-13
4.89014e-20
0.00772685
0.0131875
1.47246e-05
2.07322e-06
0.00731027
0.0247141
0.00902056
2.02967e-11
1.94203e-11
1.85678e-11
1.77557e-11
8.62154e-10
3.47735e-05
3.15471e-07
1.30285e-06
3.52315e-05
9.36098e-05
6.10724e-05
4.45423e-05
9.97308e-05
0.000117218
0.000187515
0.000181547
0.000807669
0.0168844
0.0362518
0.0142314
0.00108352
0.000859095
0.000713724
0.000365254
0.000167476
0.000154108
0.000120423
0.000394135
0.000634328
0.000650354
0.000551358
0.000622054
0.00161581
0.0162757
0.00738792
0.000802806
0.00447755
0.0374533
0.037554
0.0217878
0.0103531
0.00464295
0.00351863
0.00258816
0.000630698
0.000673646
0.000792066
0.000486071
0.000829586
0.00162361
0.00255426
0.00255513
0.0135214
0.0135111
0.00771595
0.00131173
0.0154108
0.0374532
0.037554
0.0261573
0.020497
0.0193705
0.0186356
0.0147283
0.0053799
0.000564001
0.000505963
0.00231646
0.00255422
0.00255513
0.00255422
5.85482e-07
0.000668474
0.00191651
0.00131606
0.000253726
0.00907042
0.0159482
0.0124605
0.013554
0.0169918
0.0185665
0.0132094
0.00107479
0.000312949
0.000603252
0.00178489
0.00202378
0.00183451
0.00193602
1.16443e-07
8.95927e-11
2.31814e-07
0.000202636
0.000112939
5.52587e-09
1.18197e-13
8.85445e-08
0.000288272
0.00196288
0.00397206
0.00270266
0.00110073
0.000267658
2.78158e-05
1.87666e-08
6.48778e-06
2.2787e-07
2.09925e-07
-1.56554e-23
-3.16394e-13
4.56523e-12
5.11853e-17
2.17276e-05
5.78089e-06
-1.00728e-17
1.00728e-17
-3.12002e-22
1.65088e-21
-2.90969e-18
-1.11794e-08
1.65565e-05
2.45161e-05
1.12348e-06
1.58254e-08
1.90144e-08
3.3893e-07
2.06073e-07
6.73931e-07
3.18815e-07
6.79006e-08
9.14774e-08
9.97944e-08
1.08575e-06
3.93281e-09
1.29717e-14
-5.26546e-12
-1.37592e-12
1.02358e-06
6.00176e-06
6.6471e-06
6.34551e-06
1.44774e-06
1.48964e-06
1.32591e-06
7.74712e-07
4.14221e-06
2.8826e-06
2.89874e-06
2.25254e-06
1.39681e-07
4.30588e-07
8.35945e-06
9.39117e-06
9.19978e-06
7.29911e-06
8.99081e-06
1.02028e-05
1.01106e-05
6.93302e-06
2.25366e-07
4.58856e-08
1.43497e-07
2.14533e-07
3.76018e-06
8.79543e-06
5.18604e-07
7.87681e-07
2.30968e-06
7.70001e-06
7.87166e-06
7.9281e-06
6.08423e-06
7.14928e-06
5.84403e-06
3.47983e-06
3.07397e-06
1.74378e-06
2.86655e-07
4.04684e-08
3.79969e-08
3.79908e-08
2.2494e-06
1.57332e-05
1.15214e-05
5.26109e-07
5.21035e-07
9.61465e-07
2.63748e-06
1.39743e-06
4.15135e-07
5.10411e-07
1.75919e-07
4.1222e-07
8.15346e-08
1.72583e-07
1.74756e-06
1.70986e-06
1.02392e-07
3.80019e-08
3.79841e-08
1.15934e-05
2.09894e-05
2.09169e-05
1.11256e-05
2.55535e-05
2.35195e-05
7.10989e-06
7.51385e-07
1.00265e-07
5.32084e-08
5.31991e-08
5.31997e-08
5.31991e-08
8.26726e-07
8.16757e-06
8.37608e-06
6.22204e-06
5.35321e-06
1.71448e-05
2.65357e-05
2.08288e-05
7.82555e-06
1.50026e-05
4.27163e-05
4.27154e-05
4.27149e-05
3.39995e-05
1.52645e-05
4.00135e-06
2.37574e-06
2.103e-07
5.31997e-08
7.23421e-07
5.87347e-06
2.18536e-05
4.02258e-05
4.02252e-05
4.02258e-05
2.08788e-05
2.18596e-06
5.26005e-07
7.36883e-06
3.23442e-05
4.27146e-05
4.27147e-05
4.27145e-05
4.27146e-05
4.23823e-05
1.11152e-05
2.33062e-07
7.55842e-07
7.68176e-07
3.65679e-06
1.63043e-05
2.47758e-05
2.31282e-05
9.28786e-06
5.93763e-07
1.05332e-07
5.20684e-07
5.18875e-06
9.14663e-06
2.46569e-05
4.27145e-05
3.99294e-05
1.01601e-05
8.51291e-06
1.53225e-05
1.51968e-05
5.26889e-06
2.63514e-06
4.29992e-06
5.66563e-06
4.64231e-06
4.52504e-06
4.8276e-07
1.08264e-07
1.05317e-07
4.07566e-07
3.82864e-06
8.99221e-10
1.68389e-06
1.16679e-05
9.5883e-06
5.10586e-06
3.05477e-06
5.83124e-07
2.74823e-06
3.49359e-06
1.94347e-06
3.321e-06
5.19373e-06
4.30458e-06
5.42929e-07
1.93961e-07
1.9398e-07
1.11764e-07
8.47547e-08
8.30713e-10
8.87616e-10
9.10895e-10
8.20069e-10
8.18453e-10
8.1616e-10
8.15803e-10
8.17415e-10
1.99387e-08
3.3752e-07
2.87213e-07
2.37752e-07
6.85861e-07
7.67605e-07
3.74351e-07
4.08483e-07
4.38951e-07
2.61462e-07
8.01765e-08
7.01077e-08
1.68433e-08
8.5066e-09
7.75074e-09
7.87324e-09
3.01867e-09
1.35731e-09
1.00067e-09
9.92529e-10
7.27132e-09
2.97322e-08
1.94507e-08
1.25372e-08
2.75529e-08
2.49384e-08
3.61473e-07
4.39174e-07
2.63512e-07
7.8344e-08
7.30216e-08
3.11569e-08
1.27445e-08
8.01522e-09
9.61265e-09
6.3389e-09
3.25436e-09
2.15848e-09
1.81429e-09
1.91801e-09
2.98588e-09
4.43018e-09
3.73602e-09
2.68675e-09
2.52457e-09
6.04594e-08
4.27321e-07
2.2697e-07
7.83248e-08
2.05491e-08
7.33261e-09
5.99194e-09
5.95801e-09
5.55616e-09
3.4965e-09
2.31607e-09
1.98499e-09
2.30093e-09
3.06646e-09
3.76372e-09
4.96382e-09
5.66494e-09
6.20506e-09
3.92934e-09
3.6828e-09
1.54511e-07
1.9908e-07
8.06303e-08
2.14023e-09
2.21014e-09
2.6728e-09
2.27102e-09
1.84389e-09
1.3727e-09
1.22346e-09
1.38092e-09
1.82808e-09
2.69928e-09
4.24873e-09
6.81699e-09
9.53547e-09
1.18986e-08
6.72368e-09
3.77533e-09
5.92145e-08
1.95731e-07
1.17879e-07
7.16649e-10
7.36297e-10
6.97323e-10
6.03506e-10
5.53678e-10
5.49591e-10
6.27373e-10
8.28887e-10
1.2206e-09
1.95806e-09
3.31854e-09
5.86022e-09
9.15191e-09
1.18124e-08
6.6433e-09
3.90391e-08
1.24524e-07
2.00853e-07
2.00783e-07
1.83611e-10
1.86812e-10
1.78124e-10
1.80469e-10
1.95992e-10
2.46078e-10
3.51892e-10
5.60956e-10
9.3896e-10
1.57268e-09
2.68202e-09
4.63529e-09
7.40795e-09
8.98806e-09
8.17453e-09
1.08872e-07
1.77982e-07
1.56541e-07
2.01441e-07
4.05613e-11
4.51589e-11
5.08357e-11
6.03484e-11
8.31441e-11
1.21766e-10
1.96082e-10
3.63765e-10
7.62827e-10
1.54911e-09
2.79786e-09
4.32705e-09
5.93972e-09
7.74923e-09
1.24604e-08
9.2762e-08
1.78415e-07
1.18409e-07
2.00426e-07
1.01473e-11
1.21038e-11
1.46296e-11
1.86137e-11
1.79108e-11
2.54555e-11
5.37762e-11
1.56972e-10
4.84939e-10
1.37683e-09
3.16842e-09
5.86003e-09
8.05884e-09
7.47547e-09
1.04999e-08
5.32825e-08
1.0326e-07
6.13174e-08
1.90322e-07
2.47087e-12
3.01318e-12
3.39661e-12
2.84295e-12
3.08455e-12
5.48995e-12
1.71201e-11
6.59764e-11
2.61702e-10
9.48138e-10
3.18395e-09
7.02945e-09
1.18315e-08
1.2169e-08
1.16602e-08
5.02644e-09
1.17309e-08
1.89479e-08
8.74605e-08
5.62051e-13
6.50519e-13
6.76425e-13
5.48195e-13
7.75375e-13
1.96215e-12
6.9159e-12
2.72632e-11
1.09281e-10
3.8821e-10
3.45093e-09
8.56434e-09
2.22005e-08
2.6773e-08
1.10489e-08
4.48683e-09
5.81859e-09
1.69737e-08
8.21682e-08
1.1338e-13
1.15377e-13
1.26317e-13
1.72399e-13
3.29977e-13
1.07252e-12
3.58039e-12
1.24234e-11
4.2832e-11
1.59807e-10
2.84048e-09
1.1978e-08
2.88748e-08
4.16139e-08
1.99467e-08
4.48663e-09
4.49578e-09
2.06555e-08
1.13669e-07
2.4252e-14
2.54403e-14
3.59219e-14
7.62892e-14
2.21188e-13
6.72904e-13
2.13423e-12
7.53176e-12
3.21144e-11
1.75363e-10
2.99533e-09
1.13099e-08
2.87779e-08
4.737e-08
4.69818e-08
6.17453e-09
4.51503e-09
1.77326e-08
1.1785e-07
5.35838e-15
7.31376e-15
1.48473e-14
4.34009e-14
1.38329e-13
4.71076e-13
1.45108e-12
4.88176e-12
2.12398e-11
1.26636e-10
1.014e-09
6.73473e-09
1.78873e-08
4.28751e-08
4.77031e-08
4.11807e-08
1.0173e-08
1.79501e-08
9.89647e-08
1.6342e-15
2.67357e-15
7.28245e-15
2.52487e-14
9.20928e-14
3.28528e-13
1.10215e-12
3.40899e-12
1.06702e-11
3.70504e-11
1.25147e-10
1.27522e-09
8.41014e-09
2.15625e-08
4.75778e-08
4.77737e-08
3.60878e-08
5.33519e-08
8.45304e-08
4.46233e-16
9.07952e-16
3.04463e-15
1.18261e-14
4.80361e-14
1.87368e-13
6.79722e-13
2.13925e-12
6.99551e-12
2.90818e-11
1.38689e-10
6.80092e-10
1.81703e-09
8.60254e-09
2.92138e-08
4.80382e-08
5.04389e-08
1.32664e-07
8.31661e-08
1.21477e-16
2.62935e-16
9.48661e-16
4.1918e-15
1.8911e-14
8.34524e-14
3.46114e-13
1.28221e-12
4.1088e-12
1.51993e-11
7.65828e-11
4.71795e-10
1.23982e-09
2.10649e-09
7.19312e-09
2.35618e-08
5.31048e-08
1.33787e-07
3.20883e-07
2.35734e-17
5.09601e-17
1.9236e-16
9.42335e-16
4.90925e-15
2.45813e-14
1.17231e-13
5.05601e-13
2.08654e-12
7.2433e-12
2.70214e-11
1.45905e-10
9.18821e-10
1.84258e-09
2.91759e-09
5.69203e-09
3.95851e-08
9.89779e-08
3.77948e-07
4.05667e-18
6.09588e-18
2.11676e-17
1.14564e-16
7.21358e-16
5.23846e-15
3.15381e-14
1.73342e-13
8.21707e-13
3.35075e-12
1.12938e-11
4.91199e-11
2.8924e-10
1.4966e-09
2.71745e-09
3.81369e-09
1.54978e-08
6.73133e-08
3.79881e-07
5.43543e-19
5.82107e-19
1.37775e-18
7.32222e-18
5.7752e-17
4.95689e-16
4.24212e-15
3.17993e-14
1.98348e-13
1.09245e-12
4.96787e-12
1.69837e-11
7.99755e-11
4.54867e-10
2.04631e-09
3.46141e-09
7.66739e-09
5.08298e-08
3.78508e-07
5.94056e-20
4.70009e-20
6.04687e-20
1.94414e-19
1.53132e-18
1.71153e-17
2.01208e-16
2.19473e-15
2.01905e-14
1.46492e-13
8.47828e-13
3.94306e-12
1.42451e-11
5.61873e-11
2.56466e-10
1.63365e-09
4.51751e-09
4.11917e-08
2.14529e-07
)
;

boundaryField
{
    leftWall
    {
        type            zeroGradient;
    }
    rightWall
    {
        type            zeroGradient;
    }
    lowerWall
    {
        type            zeroGradient;
    }
    atmosphere
    {
        type            inletOutlet;
        inletValue      uniform 0;
        value           nonuniform List<scalar> 
46
(
4.03041e-08
5.12304e-09
3.23718e-09
1.63141e-08
0
0
0
0
0
0
0
0
0
0
0
0
0
0
1.79019e-16
4.26124e-16
3.35082e-16
5.39882e-17
0
0
0
0
0
0
0
0
0
0
0
0
0
0
0
0
0
0
0
0
1.63365e-09
4.51751e-09
4.11917e-08
2.14529e-07
)
;
    }
    defaultFaces
    {
        type            empty;
    }
}


// ************************************************************************* //
