/*--------------------------------*- C++ -*----------------------------------*\
| =========                 |                                                 |
| \\      /  F ield         | OpenFOAM: The Open Source CFD Toolbox           |
|  \\    /   O peration     | Version:  2312                                  |
|   \\  /    A nd           | Website:  www.openfoam.com                      |
|    \\/     M anipulation  |                                                 |
\*---------------------------------------------------------------------------*/
FoamFile
{
    version     2.0;
    format      ascii;
    arch        "LSB;label=32;scalar=64";
    class       volScalarField;
    location    "5.6";
    object      p_rgh;
}
// * * * * * * * * * * * * * * * * * * * * * * * * * * * * * * * * * * * * * //

dimensions      [1 -1 -2 0 0 0 0];

internalField   nonuniform List<scalar> 
2268
(
5327.73
5332.28
5341.2
5355.03
5374.18
5398.77
5428.3
5461.51
5496.64
5532.1
5566.8
5600.11
5631.56
5660.84
5687.38
5710.11
5727.77
5739.39
5744.67
5744.23
5740.04
5735.24
5732.64
5326.06
5330.65
5339.61
5353.31
5372.37
5396.99
5426.73
5460.25
5495.69
5531.4
5566.32
5599.86
5631.59
5661.21
5688.17
5711.25
5729.09
5740.55
5745.37
5744.07
5738.78
5733.06
5730.32
5323.48
5327.97
5336.64
5349.94
5368.72
5393.37
5423.51
5457.68
5493.74
5529.94
5565.29
5599.3
5631.56
5661.89
5689.75
5713.6
5731.83
5742.9
5746.61
5743.37
5735.74
5728.18
5725.32
5319.8
5324.06
5332.18
5344.84
5363.18
5387.9
5418.75
5454.04
5491.17
5528.21
5564.25
5598.96
5631.94
5663.23
5692.41
5717.41
5736.12
5746.37
5748.22
5741.97
5730.73
5720.4
5717.32
5313.07
5316.81
5323.47
5334.13
5352.61
5379.43
5412.54
5450
5488.8
5526.96
5563.95
5599.52
5633.19
5665.57
5696.15
5722.62
5741.79
5750.16
5748.95
5738.22
5722.01
5707.98
5700.83
4177.07
4202.02
4245.83
4311.23
4405.17
4534.48
4695.65
4868.1
5029.54
5171.88
5294.72
5396.96
5469.34
5524.03
5580.2
5642.2
5672.59
5592.22
5516.59
5484.37
5412.92
5331.1
5346.57
1187.26
1194.96
1212.31
1240.25
1282.49
1349.76
1452.55
1593.87
1758.71
1935.13
2110.82
2293.44
2481.59
2675.13
2868.06
3000.77
3069.45
3152.82
3104.65
2861.67
2640.03
2488.4
2380.73
1095.51
1094.09
1091.21
1087.18
1082.03
1075.37
1068.57
1062.8
1057.46
1052.2
1048.65
1046.8
1046.78
1048.6
1050.3
1053.18
1055.07
1057.44
1065.96
1082.24
1096.04
1105.82
1113.43
2807.46
2844.01
2910.75
3006.21
3129.91
3257.86
3351.41
3390.03
3382.68
3334.09
3271.95
3223.83
3193.07
3172.85
3164.21
3159.79
3152.85
3137.92
3122.78
2739.93
2798.92
2877.23
2975.88
3117.04
3267.04
3365.04
3402.49
3391.72
3333.52
3259.23
3208.79
3178.11
3160.75
3157.65
3156.68
3146.22
3118.71
3092.11
1906.15
1950.66
2101.68
2344.8
2634.13
2913.88
3115.44
3197.19
3184.75
3078.99
2906.6
2799.6
2739.64
2671.78
2638.27
2625.79
2622.36
2567.6
2512.94
1184.65
1192.8
1192.88
1237.09
1401.37
1713.55
1978.37
2035.81
1930.71
1708
1586.09
1524.73
1473.78
1440.38
1473.16
1498.82
1459.48
1486.44
1602.65
1197.47
1202.82
1211.75
1209.4
1201.32
1186.03
1181.23
1186.12
1196.45
1216
1230.64
1230.68
1213.6
1208.55
1210.9
1177.84
1200.52
1228.45
1186.34
1194.88
1215.63
1222.31
1228.49
1217.28
1198.7
1196.39
1200.17
1210.32
1225.76
1235.6
1233.51
1227.89
1249.44
1257.56
1206.67
1209.35
1239.16
1193.85
1174.59
1188.4
1189.87
1214.66
1235.57
1210.73
1200.94
1207.78
1213.76
1223.09
1241.72
1242.13
1228.33
1221.52
1230.04
1224.25
1231.25
1246.2
1195.84
1148.16
1167.53
1181.99
1198.71
1236.39
1227.63
1208.05
1207.53
1212.37
1224.01
1283.97
1257.18
1218.75
1208.86
1219.94
1230.31
1247.09
1247.28
1205.82
1094.74
1093.81
1090.84
1087.21
1081.99
1073.78
1066.98
1062.77
1057.17
1051.31
1047.6
1046.57
1047.25
1049.22
1052.48
1056.64
1062.81
1070.66
1079.97
1090.58
1101.44
1111.81
1121.52
1075.47
1077.25
1073
1070.01
1065.16
1054.85
1037.83
1033.37
1024.71
1007.91
1001.74
1007.36
1018.69
1036.01
1047.91
1053.96
1059.88
1068.12
1075.02
1086.31
1097.45
1105.04
1118.62
867.131
854.9
845.66
832.895
822.605
812.779
811.056
795.576
792.117
786.221
774.915
768.315
766.389
769.811
797.541
807.678
827.968
843.181
866.409
878.61
881.247
880.329
872.769
719.992
721.274
713.285
703.861
701.378
702.762
698.805
701.016
679.039
668.616
649.124
665.324
676.423
677.556
679.949
682.649
688.096
697.942
705.681
713.167
720.012
729.285
742.448
729.576
726.72
721.619
713.569
707.165
700.186
688.946
649.988
654.955
655.955
672.739
674.667
674.327
675.342
677.88
680.6
684.424
689.414
694.664
700.98
709.882
720.751
725.481
736.621
733.144
726.909
718.673
709.376
699.617
690.328
676.411
669.394
676.555
672.093
670.238
670.406
671.823
674.437
678.526
682.857
687.704
693.121
698.972
710.083
722.819
728.524
747.809
742.723
734.284
722.457
710.295
697.784
652.932
610.872
572.59
539.557
521.041
513.396
519.031
541.068
569.556
600.816
630.831
655.922
679.714
695.671
705.639
717.271
742.999
765.876
753.277
689.097
573.006
405.372
239.657
143.523
88.207
58.43
40.2274
31.2659
29.3138
35.2171
46.4312
65.038
89.9343
121.942
163.275
208.653
265.158
327.169
387.404
449.602
429.227
330.354
207.724
91.5856
26.0555
6.47042
1.06891
0.225626
0.209828
0.205937
0.210101
0.212193
0.263496
0.508746
0.955546
1.19063
1.42999
1.09919
2.47658
4.38181
9.13687
19.9205
36.4806
13.6442
9.05381
3.65296
4.28288
2.01503
0.155681
0.171861
0.175353
0.172511
0.178835
0.186733
0.191441
0.190932
0.187861
0.183176
0.185027
0.186271
0.181392
0.188485
0.210155
0.482709
2.00274
0.839578
3.77929
1.2655
0.4772
0.0214572
0.0559255
0.103842
0.129689
0.137434
0.141023
0.152181
0.162004
0.168662
0.188888
0.186006
0.183919
0.189621
0.192796
0.183839
0.159798
0.159186
0.17005
0.171675
0.149869
-0.0841528
-0.0614529
-0.0264394
0.00321241
0.040503
0.0753631
0.101294
0.118224
0.132718
0.142252
0.147812
0.157792
0.165477
0.161413
0.159803
0.179004
0.185881
0.169717
0.147514
0.250007
0.303988
0.273825
0.263609
-0.0597164
-0.0463122
-0.027667
0.0083166
0.0367708
0.0624812
0.084042
0.099205
0.10971
0.119637
0.128629
0.129098
0.130411
0.130497
0.135809
0.151095
0.153047
0.153258
0.223802
0.322653
0.353377
0.319385
0.2469
-0.0268884
-0.0187502
-0.00394212
0.0156458
0.0350477
0.0545142
0.0715465
0.0855059
0.0963056
0.104509
0.11051
0.11436
0.116302
0.116936
0.11605
0.116464
0.119905
0.144547
0.265683
0.340934
0.316134
0.171591
0.0624954
-0.0105105
-0.00446925
0.0061403
0.0198739
0.0346222
0.0494999
0.0634858
0.0754759
0.0850718
0.0924955
0.0979916
0.101693
0.103727
0.104321
0.103662
0.102305
0.108498
0.126885
0.133639
0.133157
0.134843
0.0719281
0.0529188
0.00165563
0.00602492
0.0135792
0.0236757
0.0350702
0.0468539
0.0579948
0.067792
0.0759348
0.0823552
0.0873021
0.0906772
0.0926167
0.0932296
0.0926141
0.091219
0.0927241
0.0862789
0.0796594
0.073727
0.0678252
0.063459
0.0544628
0.0112241
0.0143168
0.0198338
0.0273438
0.0360343
0.0450975
0.0538252
0.0617191
0.0684701
0.0739444
0.0781717
0.0811154
0.082832
0.0833797
0.0828122
0.0812483
0.0785165
0.075847
0.072038
0.0670053
0.0904859
0.170463
0.0700636
0.0181924
0.020414
0.0245109
0.0301205
0.0366789
0.0436198
0.0504402
0.0567396
0.0622376
0.0667758
0.0702916
0.0727831
0.0742242
0.0746498
0.074094
0.0725682
0.0701833
0.0670516
0.0638934
0.059621
0.0969492
0.197869
0.181199
0.0230076
0.0246274
0.0276926
0.0319062
0.0368828
0.0422171
0.0475334
0.0525163
0.0569273
0.060612
0.0634814
0.0655006
0.0666462
0.0669092
0.0662736
0.0648378
0.0626024
0.0596732
0.0567839
0.0538736
0.0493514
0.122065
0.222593
0.026197
0.027389
0.0296994
0.0328841
0.0366772
0.0407799
0.0449092
0.0488179
0.05231
0.0552457
0.057531
0.0591062
0.0599398
0.0600143
0.0593523
0.0579363
0.0557894
0.0529845
0.0502858
0.0495126
0.0440545
0.0336392
0.0378141
0.028166
0.0290436
0.0307971
0.0332114
0.036108
0.0392598
0.0424523
0.045492
0.0482206
0.0505167
0.0522905
0.0534789
0.0540419
0.0539558
0.0532118
0.0517991
0.0497183
0.0469828
0.0438928
0.0430405
0.0398493
0.0332699
0.0230077
0.0292172
0.0298644
0.0311894
0.033022
0.0352334
0.0376472
0.0400993
0.0424393
0.0445401
0.0462987
0.0476337
0.0484847
0.0488075
0.0485728
0.0477607
0.0463571
0.0443547
0.0417488
0.0385323
0.0348695
0.0345374
0.0310194
0.0248172
0.0295702
0.030044
0.0310443
0.0324342
0.0341101
0.0359489
0.0378136
0.0395915
0.0411801
0.0424928
0.0434588
0.0440219
0.0441387
0.0437769
0.0429131
0.0415308
0.0396206
0.0371794
0.0342069
0.0307119
0.0272924
0.0269784
0.02275
0.0293935
0.0297332
0.0304857
0.0315336
0.032797
0.0341758
0.0355738
0.0369014
0.0380754
0.0390224
0.0396826
0.0400064
0.0399527
0.0394893
0.0385922
0.0372441
0.0354331
0.0331551
0.0304399
0.0273022
0.0237551
0.0201218
0.0178842
0.0288095
0.0290452
0.0296064
0.0303881
0.0313283
0.0323482
0.0333708
0.0343364
0.0351761
0.0358275
0.03624
0.0363694
0.0361789
0.035639
0.0347274
0.0334296
0.0317413
0.0296892
0.027233
0.0243835
0.0211798
0.017698
0.0142809
0.0279131
0.0280668
0.0284797
0.0290538
0.0297415
0.0304819
0.0311956
0.0318755
0.0324474
0.0328633
0.0330781
0.0330535
0.0327577
0.0321635
0.0312522
0.0300102
0.0284337
0.026521
0.0242718
0.0216998
0.0188407
0.0157486
0.0124709
0.0267714
0.0268623
0.0271607
0.0275761
0.0280848
0.0286152
0.0290711
0.0295096
0.0298661
0.0300941
0.030154
0.0300108
0.029637
0.0290093
0.0281091
0.0269248
0.0254456
0.0236825
0.0216297
0.0193028
0.0167269
0.0139386
0.0109727
0.0254398
0.0254808
0.0256967
0.0260313
0.026498
0.0267393
0.0269457
0.0272145
0.0274084
0.027491
0.0274316
0.027201
0.0267738
0.0261293
0.0252518
0.0241321
0.0227679
0.0211318
0.0192583
0.0171534
0.0148346
0.0123225
0.00964945
0.0239518
0.0239611
0.02419
0.0248175
0.0256159
0.0247419
0.0248466
0.024983
0.0250553
0.0250306
0.0248841
0.0245908
0.0241323
0.0234853
0.0226386
0.0215835
0.0203126
0.0188177
0.0171155
0.0152138
0.013128
0.0108713
0.00845722
0.0223369
0.0223531
0.0229208
0.0253163
0.0244766
0.0226975
0.0227631
0.0228063
0.0227924
0.0226936
0.0224885
0.0221566
0.0216811
0.0210458
0.0202389
0.0192515
0.0180793
0.0167222
0.0151689
0.0134527
0.0115757
0.00954768
0.0073907
0.020615
0.0207359
0.021743
0.0236271
0.0222365
0.0206963
0.0206933
0.0206778
0.0206089
0.0204642
0.0202249
0.0198742
0.0193981
0.0187845
0.0180234
0.0171069
0.016031
0.014794
0.0133961
0.0118501
0.0101644
0.0083509
0.00642081
0.0188028
0.0190704
0.0205899
0.0217729
0.0189416
0.0186805
0.018642
0.0185951
0.0184975
0.0183304
0.0180773
0.0177247
0.0172617
0.0166791
0.0159691
0.0151257
0.0141455
0.0130267
0.011771
0.0103852
0.00887765
0.00725533
0.00553654
0.016918
0.017354
0.019844
0.0185845
0.0167759
0.016671
0.0166196
0.0165603
0.0164544
0.0162833
0.0160328
0.0156921
0.0152533
0.0147099
0.0140564
0.0132882
0.0124023
0.0113977
0.0102758
0.00904073
0.00769909
0.00626082
0.00473227
0.0149828
0.0156034
0.0179138
0.016483
0.0148215
0.0146769
0.0146366
0.0145773
0.0144782
0.0143168
0.0140809
0.0137629
0.0133572
0.0128596
0.0122666
0.0115752
0.0107825
0.00988897
0.00889467
0.00780296
0.00661893
0.00534728
0.00400292
0.0130181
0.0138903
0.0161437
0.014484
0.0128045
0.0127349
0.0127043
0.0126519
0.0125687
0.0124258
0.012213
0.0119253
0.0115594
0.0111129
0.0105837
0.00996994
0.00926979
0.00848494
0.00761374
0.00665884
0.00562395
0.00451644
0.00334017
0.0110639
0.0121055
0.0143463
0.0118316
0.01082
0.0108433
0.0108262
0.010789
0.0107256
0.0106058
0.010421
0.0101687
0.0098474
0.0094559
0.00899332
0.00845908
0.00785307
0.00717238
0.00642017
0.00559746
0.00470642
0.00374913
0.00273827
0.00913061
0.0100835
0.0124997
0.00977792
0.00891883
0.00901305
0.00900681
0.00898958
0.00894658
0.00885087
0.00869658
0.00848274
0.00820922
0.00787565
0.00748175
0.00702746
0.00651282
0.00593728
0.00530202
0.00460777
0.00385584
0.00305134
0.00219435
0.00727903
0.00803297
0.0108353
0.00919536
0.00719433
0.00726452
0.0072486
0.00725221
0.00722666
0.00715378
0.00703038
0.00685657
0.00663288
0.00635934
0.00603588
0.00566254
0.00523965
0.00476775
0.00424747
0.00368015
0.00306619
0.00240419
0.00170487
0.00549762
0.00683528
0.00915978
0.00751146
0.00572885
0.00558267
0.00555711
0.0055729
0.00555916
0.00550634
0.00541299
0.00527954
0.00510668
0.00489449
0.0046428
0.00435152
0.00402086
0.0036515
0.00324457
0.00280352
0.0023254
0.00181227
0.00126055
0.00378926
0.00588998
0.00647609
0.00561839
0.0041
0.00392261
0.00392303
0.00394278
0.00393598
0.00390004
0.0038351
0.00374142
0.00361937
0.00346888
0.00328961
0.00308115
0.00284308
0.00257515
0.00227813
0.00196623
0.00162464
0.00125078
0.000852175
0.00210827
0.00346934
0.00407156
0.00304347
0.00245715
0.00235098
0.00234328
0.00235178
0.00234721
0.00232609
0.00228817
0.00223346
0.00216183
0.00207296
0.00196641
0.00184157
0.00169744
0.00153172
0.00133558
0.00116071
0.000954417
0.000728633
0.000479712
0.000582913
0.000740309
0.00182678
0.000705699
0.000486043
0.000731838
0.000750941
0.000762324
0.000760927
0.00075462
0.000744415
0.000729747
0.000709992
0.000684567
0.00065302
0.000615056
0.000570814
0.000522521
0.000477042
0.00039102
0.000311301
0.000223498
0.000127486
1126.64
1130.1
1132.77
1128.61
1125.45
1127.25
1128.14
1136.74
861.782
864.606
909.686
1006.48
777.306
784.728
786.629
774.554
728.273
728.883
734.513
727.085
729.705
730.777
733.359
735.518
768.9
771.741
765.977
740.22
502.986
544.684
587.243
616.472
48.6937
55.7035
66.3816
72.6099
0.384079
0.132075
0.142478
0.193881
0.153959
0.174555
0.179537
0.159681
0.233092
0.180248
0.173944
0.137473
0.141041
0.0727368
0.0578882
0.0571878
0.0514488
0.0472128
0.0478506
0.0473618
0.0518092
0.050205
0.0483375
0.0448457
0.0487895
0.0464511
0.0447359
0.043376
0.0464393
0.0467774
0.0582931
0.0758082
0.0467465
0.0655313
0.169012
0.204684
0.160289
0.170814
0.24913
0.25905
0.167864
0.196931
0.199966
0.229392
0.0173881
0.0148258
0.0172855
0.0401863
0.0168711
0.013453
0.0106982
0.00771576
0.0176514
0.0131182
0.0105042
0.00801522
0.0153342
0.0131099
0.00941546
0.00680308
0.0119831
0.0103577
0.00805215
0.00580768
0.0100458
0.00832943
0.00662833
0.00490534
0.00869256
0.00720876
0.00569189
0.00414622
0.00759596
0.00625297
0.00489194
0.00350297
0.00661545
0.00541181
0.00418103
0.00293062
0.00573273
0.00464655
0.00354335
0.00242322
0.00493868
0.00396868
0.00297518
0.00196596
0.00421093
0.00334239
0.00246169
0.00156034
0.0035572
0.0027897
0.00200299
0.00120485
0.00296514
0.00228558
0.00159825
0.000894729
0.00243691
0.00184709
0.0012422
0.000630112
0.00195676
0.00144598
0.000932234
0.000405902
0.0015358
0.00110795
0.000668631
0.000226314
0.00116163
0.000806333
0.00045104
8.67933e-05
0.000835898
0.000558924
0.000272427
-1.38548e-05
0.000538408
0.000331898
0.000127924
-8.24549e-05
0.000281075
0.000152698
1.66981e-05
-0.000118601
4.56472e-05
-1.11788e-05
-6.92481e-05
-0.000129811
1131.87
1166.4
1180.16
1186.41
1213.77
1217.83
1211.03
1209.32
1213.01
1244.28
1322.04
1276.91
1208.36
1197.74
1226.25
1230.96
1248.38
1240.85
1213.39
1149.25
1164.83
1179.68
1186.4
1185.94
1196.66
1206.64
1208.46
1243.17
1257.05
1169.02
1216.23
1217.15
1214.81
1217.79
1227.82
1249.59
1248.16
1236.37
1069.42
1064.85
1147.64
1161.72
1148.44
1138.21
1189.7
1207.95
1155.34
1058.33
1071.19
1202.04
1230.01
1214.06
1216.97
1252.74
1294.68
1282.58
1249.45
801.712
833.583
848.361
909.531
929.687
983.398
947.471
943.306
1011.39
1037.5
1003.06
960.016
1036.54
1059.2
1080.78
1090.99
1103.34
1156.19
1208.24
744.554
755.088
768.402
795.906
810.529
777.898
765.132
797.293
802.622
802.962
795.68
789.393
797.248
818.035
815.703
849.357
875.499
856.643
835.365
740.349
741.359
751.204
769.134
769.15
767.547
776.144
779.776
787.135
798.246
794.95
790.784
787.516
793.951
802.835
804.743
808.193
811.653
815.391
740.523
743.698
746.783
763.495
784.997
780.16
779.268
783.562
786.984
794.725
797.585
792.758
787.936
786.767
788.095
794.805
798.959
802.831
842.216
652.517
669.765
691.455
715.868
768.401
803.249
802.555
794.034
789.633
790.87
814.763
814.066
794.701
784.94
788.471
800.223
822.081
873.815
913.287
91.4023
125.604
150.248
197.896
283.266
391.365
504.487
556.654
547.047
506.628
470.737
455.567
464.557
465.769
483.856
543.964
580.856
640.722
686.407
0.209724
2.87996
9.06921
12.0582
20.276
37.9429
49.7295
52.693
48.04
46.4561
46.498
34.1593
13.5223
30.087
66.7012
90.2963
109.231
127.468
141.103
0.139711
0.139474
0.143754
0.509899
0.526648
0.598026
0.176054
0.990999
2.46985
3.80673
7.17233
4.75836
2.58067
1.73351
-0.495712
-0.55922
-0.439477
-0.520007
-0.490625
0.0925669
0.101085
0.102815
0.0936491
0.132926
0.0993545
0.0885496
0.059766
0.0146581
-0.0681675
-0.177124
-0.226631
-0.243912
-0.327046
-0.406089
-0.380928
-0.401288
-0.36056
-0.282886
0.0558168
0.0566033
0.0567289
0.0613946
0.058203
0.0486209
0.0265379
-0.0104971
-0.0546897
-0.106826
-0.163704
-0.170446
-0.170568
-0.141884
-0.074442
-0.0895032
-0.180679
-0.203972
-0.102978
0.0489109
0.0472868
0.0444179
0.0384762
0.0351572
0.0365094
0.0099143
-0.0197924
-0.0512063
-0.0645472
-0.0417267
-0.0392993
0.114561
0.0757246
0.0459876
0.041464
-0.121491
-0.0884054
0.0409389
0.0417044
0.0394966
0.0406143
0.0518663
0.0505466
0.0505334
0.0566423
0.0168501
-0.0391042
-0.0284091
-0.0404808
-0.0610519
-0.0237707
0.00755591
-0.0276923
-0.116283
-0.0923304
0.0138013
0.116327
0.041542
0.0369333
0.0355233
0.0648947
0.12821
0.108701
0.0739035
0.0158297
-0.0527466
-0.0740326
-0.087013
0.0376614
0.038188
-0.060937
-0.114701
-0.105943
-0.0473067
0.083216
0.155349
0.0966696
0.109274
0.102993
0.118341
0.140889
0.126075
0.0996335
-0.0267432
-0.0523167
-0.0667205
-0.0243269
0.0763901
0.0800064
0.00373974
-0.0766938
-0.00855933
0.0707472
0.0881508
0.102807
0.196417
0.179706
0.158971
0.156984
0.144986
0.11522
0.0917538
0.0765797
0.00216307
-0.0472147
-0.0351297
0.0352179
0.0853033
0.105652
0.108316
0.106654
0.0554513
0.0161478
-0.014976
0.257812
0.220339
0.142737
0.129999
0.159608
0.16893
0.159944
0.102796
0.0771035
0.0527476
0.00296116
-0.02424
-0.0118911
0.0106682
0.0397225
-0.00977436
-0.0359375
-0.0387315
-0.0365833
0.251926
0.18391
0.129293
0.120327
0.106155
0.0342734
0.0603489
0.0372875
0.0606586
0.0670886
0.0676334
0.0520099
-0.0129038
-0.0123538
-0.0162723
-0.0470885
-0.017378
-0.0356763
-0.0423094
0.0696049
0.082629
0.0393401
0.0283754
0.0268498
0.042329
0.04397
-0.0146974
-0.0298889
-0.0218213
0.0396534
0.0574509
0.041032
0.00787802
-0.0229176
-0.0168714
-0.0122941
-0.00607753
-0.00536468
0.00344949
-0.00180347
-0.005102
-0.00772223
-0.00550574
-0.00639001
-0.0140266
-0.0177745
-0.0307638
-0.0471632
-0.0518403
-0.0454371
-0.0261298
-0.00229247
-0.00806978
-0.0106998
-0.00928694
-0.00794466
-0.00190645
0.00357766
-0.00192574
-0.00714041
-0.0127059
-0.0187686
-0.0251245
-0.0306205
-0.0352356
-0.0387488
-0.0435213
-0.0495301
-0.0529862
-0.0553151
-0.0477898
-0.0210773
-0.00617053
-0.0300391
-0.0407912
-0.00549367
0.00326343
-0.00188121
-0.00695726
-0.012168
-0.0175905
-0.0229964
-0.0280833
-0.0328003
-0.0372779
-0.0413624
-0.0453518
-0.0486577
-0.0508472
-0.051606
-0.0511076
-0.0389645
-0.0451013
-0.0465422
-0.0321534
0.00259333
-0.00208382
-0.00671238
-0.0114307
-0.0162689
-0.0211021
-0.0257591
-0.03016
-0.0342847
-0.0381037
-0.041523
-0.0443732
-0.0462284
-0.0472157
-0.047317
-0.0465755
-0.0453866
-0.0446582
-0.0363436
0.00197311
-0.00219881
-0.00642269
-0.0107244
-0.015085
-0.0194291
-0.023658
-0.0276911
-0.0314618
-0.0349139
-0.0379574
-0.0404514
-0.0422045
-0.0432002
-0.0435066
-0.0431714
-0.0424945
-0.0413759
-0.0350416
0.00152353
-0.0022559
-0.00611015
-0.0100202
-0.0139611
-0.0178831
-0.0217176
-0.0253899
-0.0288282
-0.0319697
-0.0347379
-0.0370265
-0.0387172
-0.0397295
-0.0401386
-0.0398966
-0.0392342
-0.0374563
-0.0313859
0.00113483
-0.00228818
-0.00578276
-0.00932629
-0.0128921
-0.0164392
-0.0199133
-0.0232508
-0.0263868
-0.0292621
-0.0318113
-0.0339531
-0.035597
-0.0366515
-0.0371268
-0.0367663
-0.0360813
-0.0325397
-0.0307798
0.000792866
-0.00229828
-0.00545567
-0.00865827
-0.01188
-0.0150859
-0.0182308
-0.0212613
-0.0241215
-0.0267578
-0.0291151
-0.0311299
-0.0327224
-0.0338081
-0.0343387
-0.03415
-0.0326727
-0.0294452
-0.0305331
0.000495147
-0.00228851
-0.00513161
-0.00801686
-0.01092
-0.0138111
-0.016652
-0.0193984
-0.0220028
-0.0244183
-0.026595
-0.0284758
-0.0299976
-0.0310896
-0.0316756
-0.0316624
-0.0301869
-0.0269362
-0.0293966
0.000239535
-0.00225808
-0.00480914
-0.00739813
-0.0100038
-0.0126008
-0.015157
-0.0176345
-0.0199937
-0.0221977
-0.0241967
-0.0259362
-0.0273541
-0.028389
-0.0289808
-0.0291423
-0.0286653
-0.0269613
-0.0281766
2.2653e-05
-0.00220482
-0.00448275
-0.00679417
-0.00912278
-0.0114419
-0.0137269
-0.0159443
-0.0180569
-0.0200466
-0.0218599
-0.0234465
-0.0246952
-0.0256233
-0.0262705
-0.0265304
-0.0265989
-0.026361
-0.0258854
-0.000158336
-0.0021319
-0.00415063
-0.00620011
-0.00826438
-0.0103209
-0.0123465
-0.0143072
-0.0161569
-0.0179028
-0.0195408
-0.0209551
-0.0220629
-0.0228761
-0.0235097
-0.0238998
-0.0242541
-0.0233542
-0.0235102
-0.000303375
-0.0020377
-0.00381119
-0.00561093
-0.00742245
-0.00922721
-0.0110042
-0.0127174
-0.0142766
-0.0156766
-0.017155
-0.0184664
-0.0194263
-0.020027
-0.0205321
-0.0212696
-0.0200201
-0.0191256
-0.021203
-0.00041352
-0.00192094
-0.00346116
-0.00502248
-0.00659251
-0.00815475
-0.0096908
-0.0111729
-0.0125145
-0.0134148
-0.0142811
-0.0158099
-0.0168448
-0.0172883
-0.0167019
-0.0159009
-0.0155529
-0.0165146
-0.0192606
-0.00048799
-0.00177962
-0.0030974
-0.00443088
-0.00576942
-0.00709967
-0.00840352
-0.00965742
-0.010841
-0.0118059
-0.0100428
-0.00474881
-0.0111968
-0.0149184
-0.0145368
-0.0127729
-0.0131107
-0.0157221
-0.017361
-0.000526861
-0.00161264
-0.00271759
-0.00383301
-0.0049502
-0.00605883
-0.00714481
-0.00819152
-0.00917685
-0.0100309
-0.00945297
0.00142851
0.00177581
-0.0107043
-0.0127329
-0.0123884
-0.0111328
-0.0143242
-0.015405
-0.000530048
-0.00141847
-0.00231926
-0.00322572
-0.00413127
-0.00502839
-0.00590713
-0.00675379
-0.00755592
-0.00828853
-0.00865692
-0.00265103
0.00472581
0.00379351
-0.0084912
-0.0114133
-0.0122935
-0.0126408
-0.00672689
-0.000499858
-0.00119724
-0.00190133
-0.00260752
-0.0033107
-0.00400558
-0.00468591
-0.00534384
-0.00596647
-0.00655127
-0.00709806
-0.00737004
0.0018828
0.00807345
0.00615087
-0.00634094
-0.0113001
-0.0107543
-0.00154142
-0.000437588
-0.00095058
-0.00146612
-0.00198107
-0.00249097
-0.0029921
-0.00348109
-0.00395427
-0.00440758
-0.00483721
-0.00525679
-0.00566193
-0.00560902
0.00600448
0.0115773
0.00557653
-0.00698839
-0.0100784
0.00428509
-0.000347365
-0.000682031
-0.00101541
-0.00134573
-0.00166858
-0.00198119
-0.00228221
-0.00257186
-0.00285091
-0.00311901
-0.00337857
-0.00366343
-0.00395823
-0.00410729
0.00819046
0.0112653
-0.000475096
-0.00879704
0.0061781
-0.000235077
-0.000396075
-0.000549563
-0.000695633
-0.000830397
-0.000952285
-0.00106128
-0.00115989
-0.00125336
-0.00134931
-0.00145757
-0.00160467
-0.00187031
-0.00257284
-0.00409071
0.000705679
0.00573026
-0.000751036
0.0015695
)
;

boundaryField
{
    leftWall
    {
        type            fixedFluxPressure;
        gradient        uniform 0;
        value           nonuniform List<scalar> 
50
(
5327.73
5326.06
5323.48
5319.8
5313.07
4177.07
1187.26
1095.51
1094.74
1075.47
867.131
719.992
729.576
736.621
747.809
765.876
429.227
13.6442
3.77929
-0.0841528
-0.0597164
-0.0268884
-0.0105105
0.00165563
0.0112241
0.0181924
0.0230076
0.026197
0.028166
0.0292172
0.0295702
0.0293935
0.0288095
0.0279131
0.0267714
0.0254398
0.0239518
0.0223369
0.020615
0.0188028
0.016918
0.0149828
0.0130181
0.0110639
0.00913061
0.00727903
0.00549762
0.00378926
0.00210827
0.000582913
)
;
    }
    rightWall
    {
        type            fixedFluxPressure;
        gradient        uniform 0;
        value           nonuniform List<scalar> 
50
(
3122.78
3092.11
2512.94
1602.65
1186.34
1193.85
1195.84
1205.82
1213.39
1236.37
1249.45
1208.24
835.365
815.391
842.216
913.287
686.407
141.103
-0.490625
-0.282886
-0.102978
0.0409389
0.116327
0.155349
0.102807
-0.014976
-0.0365833
-0.0423094
-0.00536468
-0.00190645
-0.00549367
-0.0321534
-0.0363436
-0.0350416
-0.0313859
-0.0307798
-0.0305331
-0.0293966
-0.0281766
-0.0258854
-0.0235102
-0.021203
-0.0192606
-0.017361
-0.015405
-0.00672689
-0.00154142
0.00428509
0.0061781
0.0015695
)
;
    }
    lowerWall
    {
        type            fixedFluxPressure;
        gradient        uniform 0;
        value           nonuniform List<scalar> 
62
(
5327.73
5332.28
5341.2
5355.03
5374.18
5398.77
5428.3
5461.51
5496.64
5532.1
5566.8
5600.11
5631.56
5660.84
5687.38
5710.11
5727.77
5739.39
5744.67
5744.23
5740.04
5735.24
5732.64
5732.64
5730.32
5725.32
5717.32
5700.83
5346.57
2380.73
1113.43
1126.64
1130.1
1132.77
1128.61
2807.46
2739.93
1906.15
1184.65
1197.47
1194.88
1174.59
1148.16
2807.46
2844.01
2910.75
3006.21
3129.91
3257.86
3351.41
3390.03
3382.68
3334.09
3271.95
3223.83
3193.07
3172.85
3164.21
3159.79
3152.85
3137.92
3122.78
)
;
    }
    atmosphere
    {
        type            totalPressure;
        rho             rho;
        psi             none;
        gamma           1;
        p0              uniform 0;
        value           nonuniform List<scalar> 
46
(
0
0
0
0
-1.78265e-06
-1.98599e-05
-4.353e-05
-5.43183e-05
-5.63354e-05
-5.33997e-05
-4.73113e-05
-3.95388e-05
-3.10497e-05
-2.25954e-05
-1.47499e-05
-8.0165e-06
-2.93073e-06
-2.1074e-07
0
0
0
0
-4.75289e-06
-2.99778e-05
-5.63537e-05
-8.82344e-05
-0.000121641
-0.000173584
-0.00025029
-0.00031596
-0.000368462
-0.000406357
-0.000429518
-0.000438641
-0.000436041
-0.000426392
-0.000414944
-0.000406536
-0.000407011
-0.000438832
-0.000611418
-0.000973328
0
0
0
0
)
;
    }
    defaultFaces
    {
        type            empty;
    }
}


// ************************************************************************* //
