/*--------------------------------*- C++ -*----------------------------------*\
| =========                 |                                                 |
| \\      /  F ield         | OpenFOAM: The Open Source CFD Toolbox           |
|  \\    /   O peration     | Version:  2312                                  |
|   \\  /    A nd           | Website:  www.openfoam.com                      |
|    \\/     M anipulation  |                                                 |
\*---------------------------------------------------------------------------*/
FoamFile
{
    version     2.0;
    format      ascii;
    arch        "LSB;label=32;scalar=64";
    class       volVectorField;
    location    "5.6";
    object      U;
}
// * * * * * * * * * * * * * * * * * * * * * * * * * * * * * * * * * * * * * //

dimensions      [0 1 -1 0 0 0 0];

internalField   nonuniform List<vector> 
2268
(
(0.00693612 -0.00396544 0)
(0.0127502 -0.0019961 0)
(0.0189674 -0.00173658 0)
(0.0257684 -0.0017618 0)
(0.0331616 -0.00184195 0)
(0.041037 -0.00191141 0)
(0.0493119 -0.00198941 0)
(0.0579625 -0.00206108 0)
(0.0669119 -0.00208693 0)
(0.0759105 -0.00204227 0)
(0.0845936 -0.00191202 0)
(0.0925429 -0.00167804 0)
(0.0992876 -0.00132096 0)
(0.10429 -0.000838495 0)
(0.106983 -0.000230769 0)
(0.106822 0.000520076 0)
(0.103188 0.0014474 0)
(0.0954398 0.00250232 0)
(0.0833482 0.00354277 0)
(0.0673578 0.00444959 0)
(0.0482478 0.00512436 0)
(0.0270267 0.00537022 0)
(0.00560246 0.00342648 0)
(0.00211739 -0.00584397 0)
(0.00837314 -0.00426045 0)
(0.0144231 -0.00463037 0)
(0.021352 -0.00509064 0)
(0.0288593 -0.00548534 0)
(0.0368176 -0.00579279 0)
(0.0451872 -0.00608142 0)
(0.0540017 -0.00636354 0)
(0.0631827 -0.00649682 0)
(0.0724581 -0.00639873 0)
(0.0814433 -0.00604578 0)
(0.0897077 -0.00537514 0)
(0.0967692 -0.00432003 0)
(0.102087 -0.00287154 0)
(0.105117 -0.00104409 0)
(0.105354 0.00117952 0)
(0.102136 0.003874 0)
(0.094758 0.00689084 0)
(0.083005 0.00976421 0)
(0.0674301 0.0122005 0)
(0.0489573 0.0140902 0)
(0.0283344 0.015139 0)
(0.00826171 0.0121671 0)
(0.00129389 -0.00779417 0)
(0.00709929 -0.00716352 0)
(0.0128279 -0.00772039 0)
(0.0195972 -0.00849946 0)
(0.0269394 -0.00919211 0)
(0.0347036 -0.00976374 0)
(0.0428795 -0.0102958 0)
(0.0516012 -0.0108625 0)
(0.0608048 -0.0111452 0)
(0.0701753 -0.0109874 0)
(0.0793194 -0.0103737 0)
(0.0878029 -0.00917741 0)
(0.095113 -0.00732296 0)
(0.100697 -0.00486215 0)
(0.104052 -0.00183198 0)
(0.104768 0.00187739 0)
(0.102111 0.00645053 0)
(0.0951869 0.0115641 0)
(0.0837634 0.0163299 0)
(0.0686298 0.0202796 0)
(0.0507657 0.0232211 0)
(0.0302617 0.0246852 0)
(0.0107538 0.020551 0)
(0.00186811 -0.00944584 0)
(0.00738779 -0.00957177 0)
(0.0131345 -0.0104606 0)
(0.0198747 -0.0116055 0)
(0.0271781 -0.0125615 0)
(0.0348802 -0.0133359 0)
(0.0429347 -0.0141161 0)
(0.0515325 -0.0149498 0)
(0.0606416 -0.0154031 0)
(0.0699703 -0.0152775 0)
(0.079206 -0.0146105 0)
(0.0878864 -0.0131294 0)
(0.0953601 -0.0106454 0)
(0.101028 -0.00722039 0)
(0.10453 -0.00299815 0)
(0.105637 0.00208286 0)
(0.103473 0.00854668 0)
(0.0968942 0.0159975 0)
(0.0857685 0.0228351 0)
(0.071215 0.0284909 0)
(0.054226 0.0329914 0)
(0.0337722 0.0358471 0)
(0.0136438 0.0324591 0)
(0.00255605 -0.012536 0)
(0.00782806 -0.0130843 0)
(0.0137158 -0.0143611 0)
(0.0206209 -0.0158447 0)
(0.0282557 -0.0169068 0)
(0.0365016 -0.0176605 0)
(0.045197 -0.0185073 0)
(0.0541252 -0.0195624 0)
(0.0630411 -0.020245 0)
(0.0719042 -0.0201284 0)
(0.0808038 -0.0192381 0)
(0.0894757 -0.0172282 0)
(0.0971934 -0.0139171 0)
(0.103205 -0.00959635 0)
(0.106654 -0.00443929 0)
(0.106965 0.00210793 0)
(0.104055 0.010327 0)
(0.0973582 0.0197362 0)
(0.0869951 0.0278646 0)
(0.0735505 0.0343475 0)
(0.0575487 0.0395345 0)
(0.037767 0.0433984 0)
(0.0169774 0.0410365 0)
(0.00267418 -0.0179758 0)
(0.00778176 -0.018408 0)
(0.0138254 -0.019362 0)
(0.0210184 -0.020496 0)
(0.0292425 -0.0213172 0)
(0.0384778 -0.0218148 0)
(0.0483472 -0.02212 0)
(0.0579322 -0.0222228 0)
(0.0664649 -0.0220462 0)
(0.0741025 -0.0216078 0)
(0.0810253 -0.0208262 0)
(0.087225 -0.0188517 0)
(0.0921237 -0.0151935 0)
(0.0956693 -0.00999034 0)
(0.0978744 -0.00364674 0)
(0.0981221 0.00420044 0)
(0.0957341 0.0129192 0)
(0.0912916 0.022479 0)
(0.0845058 0.0310922 0)
(0.0733222 0.0385172 0)
(0.0577693 0.0445774 0)
(0.038016 0.0495338 0)
(0.0174067 0.0502164 0)
(0.000821327 -0.0155414 0)
(0.00356929 -0.0164345 0)
(0.00800735 -0.0184448 0)
(0.0145135 -0.0206694 0)
(0.0231831 -0.0223356 0)
(0.0329431 -0.0237376 0)
(0.0422195 -0.0254492 0)
(0.0510192 -0.026302 0)
(0.0595272 -0.0259624 0)
(0.0707433 -0.0245443 0)
(0.0815883 -0.0227655 0)
(0.0911433 -0.0200552 0)
(0.0978916 -0.0160905 0)
(0.101989 -0.0111402 0)
(0.103454 -0.00470671 0)
(0.0984846 0.00428793 0)
(0.0883524 0.0146569 0)
(0.0789256 0.0255621 0)
(0.0697996 0.0365505 0)
(0.0560574 0.0479378 0)
(0.0391566 0.0571614 0)
(0.022201 0.0647941 0)
(0.0102108 0.0679668 0)
(-0.00361535 -0.0131075 0)
(-0.00773458 -0.015811 0)
(-0.0105012 -0.0196177 0)
(-0.00974391 -0.0252815 0)
(-0.0035485 -0.0313461 0)
(0.00727995 -0.0344909 0)
(0.0169139 -0.0339905 0)
(0.0137887 -0.0311305 0)
(-0.0141823 -0.0315612 0)
(-0.0149365 -0.0348273 0)
(-0.0144536 -0.0354769 0)
(-0.0107898 -0.0313964 0)
(-0.0131504 -0.0242885 0)
(-0.0184333 -0.0165217 0)
(-0.0162591 -0.00522084 0)
(-0.012926 0.00788169 0)
(-0.0171107 0.0211702 0)
(-0.0251605 0.0332485 0)
(-0.0354903 0.0467602 0)
(-0.0437679 0.0599154 0)
(-0.0478503 0.0675289 0)
(-0.0456766 0.0709705 0)
(-0.016102 0.0690138 0)
(-0.00738365 0.00216707 0)
(-0.00878481 0.00108996 0)
(-0.0222117 0.00385018 0)
(-0.0400682 0.0050201 0)
(-0.0607661 0.0041989 0)
(-0.0755405 0.00280655 0)
(-0.0836543 0.00122691 0)
(-0.0851502 -0.000369551 0)
(-0.0794996 -0.00203137 0)
(-0.0675811 -0.00341229 0)
(-0.0557457 -0.00316832 0)
(-0.0491457 -0.0023322 0)
(-0.0460926 -0.0019746 0)
(-0.0435944 -0.00180294 0)
(-0.0413887 -0.00114064 0)
(-0.039423 -0.000888873 0)
(-0.0320645 -0.00285934 0)
(-0.0165615 -0.00334872 0)
(-0.00342811 -0.00112028 0)
(0.00141253 0.0053369 0)
(-0.00127956 0.00385476 0)
(-0.015859 0.00801782 0)
(-0.0351831 0.0119586 0)
(-0.0575235 0.0114821 0)
(-0.0758361 0.00777396 0)
(-0.085535 0.00278344 0)
(-0.0858662 -0.00194936 0)
(-0.0778773 -0.00642664 0)
(-0.065076 -0.00867007 0)
(-0.0540033 -0.00535195 0)
(-0.0474635 -0.00109345 0)
(-0.0443927 -2.7263e-05 0)
(-0.0433747 3.08301e-05 0)
(-0.042837 7.67954e-05 0)
(-0.0408335 -0.00117194 0)
(-0.0304947 -0.00910323 0)
(-0.0164169 -0.0105511 0)
(-0.00474419 -0.00646669 0)
(-0.0140846 -0.00154584 0)
(-0.0320778 0.00743572 0)
(-0.0437157 0.0144084 0)
(-0.052014 0.0185831 0)
(-0.0713433 0.0185403 0)
(-0.0925353 0.0137975 0)
(-0.102146 0.00536993 0)
(-0.0997247 -0.00277299 0)
(-0.0916233 -0.00992592 0)
(-0.0822875 -0.0124461 0)
(-0.0732511 -0.00958863 0)
(-0.0628227 -0.00611253 0)
(-0.0529475 -0.00543319 0)
(-0.04566 -0.00380154 0)
(-0.0401788 -0.00315143 0)
(-0.0337754 -0.00512181 0)
(-0.0227738 -0.0129708 0)
(-0.0254486 -0.0140558 0)
(-0.0105888 -0.0114515 0)
(-0.142601 0.0364909 0)
(-0.159788 0.0261146 0)
(-0.165554 0.0230081 0)
(-0.145219 0.0303001 0)
(-0.130633 0.0314014 0)
(-0.13653 0.020296 0)
(-0.141949 0.00486178 0)
(-0.138485 -0.00615289 0)
(-0.13025 -0.0140208 0)
(-0.116912 -0.0148384 0)
(-0.0920004 -0.0109447 0)
(-0.0537964 -0.00875116 0)
(-0.0340377 -0.00759288 0)
(-0.0304172 -0.00260767 0)
(-0.0178484 -0.00380229 0)
(-0.0212174 -0.0132013 0)
(-0.0315512 -0.0111998 0)
(-0.0367578 -0.0134623 0)
(-0.00197389 -0.0195964 0)
(-0.129257 0.0925901 0)
(-0.140554 0.0305576 0)
(-0.147253 0.00391675 0)
(-0.118958 0.00710952 0)
(-0.0752701 0.0197601 0)
(-0.0686209 0.0286576 0)
(-0.105879 0.00765875 0)
(-0.141648 -0.0104787 0)
(-0.160222 -0.0234784 0)
(-0.135484 -0.0331535 0)
(-0.0739835 -0.0436462 0)
(0.0114482 -0.0329954 0)
(0.0119022 -0.00586439 0)
(0.00761383 -0.00623121 0)
(0.0468428 -0.0120232 0)
(0.0184822 0.00846778 0)
(-0.05719 -0.00502833 0)
(0.0350077 -0.0423595 0)
(0.0612208 -0.0155624 0)
(-0.109728 0.141495 0)
(-0.100191 0.0459091 0)
(-0.126507 0.00316392 0)
(-0.112575 -0.00388408 0)
(-0.0743583 -0.00412939 0)
(-0.0401157 0.0336886 0)
(-0.0716407 0.0281761 0)
(-0.104396 0.00692933 0)
(-0.116234 -0.0163658 0)
(-0.0882748 -0.0468946 0)
(-0.0424824 -0.0790209 0)
(0.0257541 -0.0545671 0)
(0.0564017 -0.00438478 0)
(0.0523444 -0.0100024 0)
(0.0499287 -0.0188099 0)
(0.0380338 0.0274225 0)
(0.0186515 -0.008927 0)
(0.0377184 -0.0645178 0)
(0.0678122 0.0158512 0)
(-0.0938198 0.179845 0)
(-0.0513723 0.05633 0)
(-0.101408 0.00543361 0)
(-0.0995763 -0.0110311 0)
(-0.0777873 -0.0250323 0)
(-0.0320449 0.029424 0)
(-0.0424008 0.040097 0)
(-0.0664501 0.0143268 0)
(-0.0728728 -0.0178889 0)
(-0.0673897 -0.0553301 0)
(-0.0377514 -0.103719 0)
(0.00357327 -0.0812242 0)
(0.0576702 -0.0104918 0)
(0.0497705 -0.00649877 0)
(0.0226808 -0.0149613 0)
(0.0129622 0.0355787 0)
(0.0207321 -0.0135783 0)
(0.0289011 -0.0685212 0)
(0.0568971 0.0346332 0)
(-0.0804056 0.20874 0)
(-0.0130345 0.0618278 0)
(-0.0580218 0.0153518 0)
(-0.0723162 -0.00729686 0)
(-0.0749664 -0.0342766 0)
(-0.042552 0.0160635 0)
(-0.0298768 0.0457043 0)
(-0.0416313 0.0214736 0)
(-0.0452475 -0.0152184 0)
(-0.054898 -0.0577872 0)
(-0.0411955 -0.113737 0)
(-0.0403912 -0.100191 0)
(0.0203102 -0.0151779 0)
(0.00596568 0.00132865 0)
(-0.0168087 -0.00841291 0)
(-0.0189159 0.0376122 0)
(0.0118929 -0.0259905 0)
(0.014027 -0.0728389 0)
(0.0443108 0.0485075 0)
(-0.0137289 -0.0115199 0)
(-0.0321368 -0.0161908 0)
(-0.0456829 -0.0194389 0)
(-0.0512322 -0.025112 0)
(-0.050893 -0.0307065 0)
(-0.0481078 -0.0286816 0)
(-0.0458532 -0.0160755 0)
(-0.0455632 -0.0107042 0)
(-0.0433036 -0.0189785 0)
(-0.0391345 -0.0266987 0)
(-0.0361268 -0.0281743 0)
(-0.0339451 -0.0215053 0)
(-0.0343986 -0.011811 0)
(-0.0371997 -0.00868207 0)
(-0.0398359 -0.00340374 0)
(-0.0422423 0.00984619 0)
(-0.0466236 0.0243517 0)
(-0.0518869 0.0371369 0)
(-0.056639 0.0483224 0)
(-0.0591783 0.0575222 0)
(-0.0587514 0.0622873 0)
(-0.0557487 0.058489 0)
(-0.0394847 0.047584 0)
(-0.0123659 0.0266907 0)
(-0.0301577 0.0143542 0)
(-0.0443261 -0.0028425 0)
(-0.053626 -0.0210744 0)
(-0.0600473 -0.0369506 0)
(-0.0607903 -0.0433258 0)
(-0.0535763 -0.0389206 0)
(-0.0449392 -0.0347041 0)
(-0.0403135 -0.0350733 0)
(-0.0383723 -0.0359251 0)
(-0.0379704 -0.039244 0)
(-0.0350484 -0.0342598 0)
(-0.0296244 -0.0247817 0)
(-0.0257808 -0.0128552 0)
(-0.0377375 -0.00161113 0)
(-0.0472216 0.0119867 0)
(-0.0546402 0.0265485 0)
(-0.0604015 0.0385986 0)
(-0.0634104 0.0467353 0)
(-0.0610787 0.0527207 0)
(-0.0558678 0.0554556 0)
(-0.0516495 0.048188 0)
(-0.0480616 0.0341087 0)
(0.000383422 0.03047 0)
(0.0021094 0.0170136 0)
(0.00154263 0.00356975 0)
(-0.0125433 -0.00638472 0)
(-0.0311142 -0.0222695 0)
(-0.040903 -0.033932 0)
(-0.0405555 -0.036344 0)
(-0.036503 -0.0308957 0)
(-0.0389764 -0.0293849 0)
(-0.0510193 -0.0309596 0)
(-0.0708519 -0.032435 0)
(-0.0874897 -0.0243435 0)
(-0.100348 -0.0127788 0)
(-0.108903 0.00570266 0)
(-0.111891 0.013168 0)
(-0.113077 0.0244482 0)
(-0.110818 0.0366023 0)
(-0.107378 0.0461578 0)
(-0.101783 0.0495048 0)
(-0.0932313 0.0521757 0)
(-0.0812325 0.0542976 0)
(-0.0678273 0.0530069 0)
(-0.0694142 0.0539586 0)
(0.00387877 0.0231529 0)
(0.0105926 0.0130257 0)
(0.0091071 0.0111816 0)
(-0.00178187 0.0110609 0)
(-0.0140035 -0.00799023 0)
(-0.0271017 -0.0309505 0)
(-0.0412514 -0.040179 0)
(-0.0585215 -0.0279114 0)
(-0.0810735 -0.00963332 0)
(-0.1153 0.00100931 0)
(-0.145735 -0.000225746 0)
(-0.159667 -0.00330949 0)
(-0.160509 -0.00623731 0)
(-0.154353 0.00130096 0)
(-0.146562 0.00599304 0)
(-0.141068 0.0164162 0)
(-0.134031 0.026774 0)
(-0.125407 0.0337196 0)
(-0.116327 0.0353843 0)
(-0.107846 0.0360377 0)
(-0.0940154 0.0310181 0)
(-0.0724461 0.0306246 0)
(-0.0574647 0.0492018 0)
(0.000279424 0.019551 0)
(-0.00452044 0.0153573 0)
(-0.0148594 0.0179575 0)
(-0.0250636 0.01712 0)
(-0.0395092 0.0029839 0)
(-0.0593553 -0.0119478 0)
(-0.0855519 -0.0115291 0)
(-0.107611 0.00872886 0)
(-0.123861 0.0233442 0)
(-0.128874 0.0210321 0)
(-0.125658 0.00693443 0)
(-0.119286 -0.00730151 0)
(-0.114041 -0.0143676 0)
(-0.109855 -0.00934161 0)
(-0.104298 -0.00162272 0)
(-0.099917 0.010876 0)
(-0.0952848 0.0211419 0)
(-0.0892963 0.0261584 0)
(-0.0836423 0.0289634 0)
(-0.0825544 0.0294126 0)
(-0.0752648 0.0157775 0)
(-0.0654093 0.0083022 0)
(-0.0471733 0.0319776 0)
(-0.0058749 0.0240592 0)
(-0.0167553 0.0278118 0)
(-0.0317202 0.0341184 0)
(-0.0479257 0.0359544 0)
(-0.0707943 0.0283262 0)
(-0.0975787 0.0179121 0)
(-0.118194 0.0126599 0)
(-0.126675 0.0189254 0)
(-0.121973 0.020236 0)
(-0.111694 0.00853741 0)
(-0.101901 -0.00370636 0)
(-0.0973326 -0.0135002 0)
(-0.09559 -0.0165952 0)
(-0.09308 -0.0125693 0)
(-0.0876845 -0.00410901 0)
(-0.0793572 0.00762561 0)
(-0.0688006 0.0183123 0)
(-0.0571596 0.0235929 0)
(-0.0469781 0.029447 0)
(-0.0427897 0.0335321 0)
(-0.0399814 0.0191585 0)
(-0.0476405 0.0054375 0)
(-0.0492137 0.0131263 0)
(-0.00903898 0.0320813 0)
(-0.0175789 0.0380125 0)
(-0.0271367 0.0466943 0)
(-0.0386842 0.0530963 0)
(-0.0608217 0.0488114 0)
(-0.0919601 0.0320513 0)
(-0.121152 0.0125384 0)
(-0.136153 0.000162344 0)
(-0.133388 -0.0087271 0)
(-0.122354 -0.0210048 0)
(-0.109909 -0.0303368 0)
(-0.0992194 -0.0354901 0)
(-0.0915412 -0.0360654 0)
(-0.0836403 -0.0341832 0)
(-0.073062 -0.0282256 0)
(-0.0589626 -0.0195842 0)
(-0.0404535 -0.00952228 0)
(-0.0245606 -0.00298954 0)
(-0.0101568 0.00631172 0)
(0.000340484 0.017533 0)
(0.00586262 0.0200441 0)
(0.00108397 0.0167421 0)
(-0.00809971 0.0133022 0)
(-0.0169018 0.063376 0)
(-0.0372597 0.0642376 0)
(-0.0594785 0.0643265 0)
(-0.0743986 0.0644621 0)
(-0.0908207 0.064088 0)
(-0.118248 0.0605108 0)
(-0.146911 0.0459521 0)
(-0.151467 0.0266207 0)
(-0.139994 0.0030382 0)
(-0.121729 -0.0133184 0)
(-0.109955 -0.0208587 0)
(-0.108862 -0.0237364 0)
(-0.112069 -0.0248487 0)
(-0.110994 -0.0273682 0)
(-0.102228 -0.0279117 0)
(-0.0831133 -0.0274323 0)
(-0.0554931 -0.0214965 0)
(-0.0293629 -0.0117122 0)
(-0.00792668 0.00163813 0)
(0.0117991 0.0099077 0)
(0.0253087 0.0145358 0)
(0.0305798 0.0149531 0)
(0.0266704 0.0127933 0)
(-0.00587911 0.0714365 0)
(-0.00117087 0.0701139 0)
(0.000850086 0.068921 0)
(0.0151517 0.0778472 0)
(0.0263113 0.118029 0)
(-0.00345789 0.134372 0)
(-0.00111201 0.11486 0)
(-0.126654 0.051118 0)
(-0.159116 0.00936158 0)
(-0.153096 -0.0083158 0)
(-0.137217 -0.0115593 0)
(-0.129263 0.00180119 0)
(-0.13234 0.00236674 0)
(-0.140392 -0.0100667 0)
(-0.127667 -0.0357221 0)
(-0.0974543 -0.0547014 0)
(-0.0462044 -0.0514178 0)
(-0.0733884 -0.0146343 0)
(-0.0591431 -0.0211647 0)
(-0.0563801 -0.000763066 0)
(-0.0782726 0.0190553 0)
(-0.148566 0.0263758 0)
(-0.168571 0.024965 0)
(0.0121271 0.0818156 0)
(0.046819 0.090038 0)
(0.0382909 0.0949322 0)
(-0.0308616 0.0978349 0)
(0.0190752 0.112193 0)
(0.047423 0.085676 0)
(0.0393581 0.134681 0)
(0.0556318 0.036371 0)
(0.0547908 -0.0547279 0)
(0.0393955 -0.0865513 0)
(0.025983 -0.0806583 0)
(0.00600188 -0.0582991 0)
(0.0060571 -0.0433557 0)
(0.013989 -0.0412996 0)
(0.0183629 -0.060369 0)
(0.0131958 -0.077782 0)
(-0.00915526 -0.076319 0)
(-0.00392674 0.0115394 0)
(0.00763926 -0.0428168 0)
(-0.0197768 0.0194319 0)
(0.0389084 0.107227 0)
(0.026115 0.0570332 0)
(0.131017 -0.0222877 0)
(0.0229605 0.0207388 0)
(0.0199689 0.0170183 0)
(0.0176316 0.108879 0)
(0.0377056 -0.0160296 0)
(0.0551412 0.0299643 0)
(0.054474 0.101273 0)
(0.061404 0.135858 0)
(0.0916924 0.10885 0)
(0.0902572 0.0638107 0)
(0.0753077 0.0239965 0)
(0.0656017 0.00375005 0)
(0.0637336 -0.00309918 0)
(0.0687986 -0.0107524 0)
(0.071537 -0.0220678 0)
(0.064538 -0.0393536 0)
(0.0485256 -0.0520202 0)
(0.0272149 -0.0512853 0)
(0.02092 -0.0181174 0)
(0.0158828 -0.0132663 0)
(0.0248641 -0.0192273 0)
(0.106759 -0.0252899 0)
(0.185657 -0.0767818 0)
(0.23571 -0.0752845 0)
(-0.0108213 -0.0675431 0)
(-0.0285734 0.0210781 0)
(-0.00226815 -0.00948525 0)
(0.0249539 0.097735 0)
(0.0128695 0.105813 0)
(0.013169 0.0987559 0)
(0.039076 0.0783694 0)
(0.0670914 0.0334944 0)
(0.0836296 -0.00394486 0)
(0.08432 -0.0230135 0)
(0.0740955 -0.0318639 0)
(0.0661328 -0.0348087 0)
(0.0623245 -0.0337866 0)
(0.0577592 -0.0310979 0)
(0.0486549 -0.0344687 0)
(0.0370883 -0.0409632 0)
(0.0224583 -0.0347635 0)
(0.00939095 -0.00921585 0)
(0.00322441 -0.0148097 0)
(0.0293779 -0.0697674 0)
(0.0853333 -0.101424 0)
(0.138865 -0.103056 0)
(0.173765 -0.0878727 0)
(-0.01496 0.0895237 0)
(-0.018591 0.101063 0)
(-0.0187787 0.0983009 0)
(-0.0164333 0.0777403 0)
(0.00429312 0.0644367 0)
(0.0241149 0.0593457 0)
(0.0493192 0.0524365 0)
(0.0642153 0.0394493 0)
(0.0667168 0.0227575 0)
(0.0629174 0.00345308 0)
(0.05688 -0.0106562 0)
(0.0495589 -0.0177356 0)
(0.0420711 -0.0196422 0)
(0.0345949 -0.0198491 0)
(0.0263478 -0.0250283 0)
(0.015927 -0.0292058 0)
(-0.00150774 -0.0183387 0)
(-0.0167379 -0.00271284 0)
(-0.00796035 -0.0350118 0)
(0.0213224 -0.108992 0)
(0.0502169 -0.148408 0)
(0.0736272 -0.13692 0)
(0.084568 -0.107253 0)
(-0.00268472 0.0286777 0)
(0.000640114 0.0417607 0)
(0.00380155 0.0340794 0)
(0.00815748 0.0438807 0)
(0.0199656 0.0484269 0)
(0.0319845 0.0484563 0)
(0.0427159 0.0418459 0)
(0.0483956 0.0287205 0)
(0.0501 0.0145719 0)
(0.0486671 0.0025642 0)
(0.0439026 -0.0071036 0)
(0.0369785 -0.0122989 0)
(0.0301861 -0.0133653 0)
(0.0244619 -0.0130531 0)
(0.0176862 -0.0151961 0)
(0.00598561 -0.0134402 0)
(-0.0104649 -0.00215707 0)
(-0.015048 -0.00392381 0)
(-0.00269626 -0.0543807 0)
(0.00711248 -0.124716 0)
(0.00500751 -0.159326 0)
(-0.00193029 -0.135742 0)
(-0.0185201 -0.0902144 0)
(0.000813836 0.0419353 0)
(0.00567212 0.0440854 0)
(0.0111233 0.0418402 0)
(0.0150742 0.0446647 0)
(0.0208032 0.0452218 0)
(0.0269955 0.0419908 0)
(0.0331402 0.0351422 0)
(0.0372771 0.0256805 0)
(0.038818 0.0156662 0)
(0.0380524 0.00626333 0)
(0.0348539 -0.00127148 0)
(0.0298978 -0.00560323 0)
(0.0248215 -0.00690761 0)
(0.0202422 -0.00686065 0)
(0.0144737 -0.00643925 0)
(0.00560727 -0.000753739 0)
(-0.00246459 0.00585431 0)
(-0.00101593 -0.00603872 0)
(0.000653008 -0.0552735 0)
(-0.0133738 -0.115619 0)
(-0.0436358 -0.137769 0)
(-0.0729658 -0.107868 0)
(-0.0954779 -0.0658179 0)
(0.00168916 0.0418223 0)
(0.00563529 0.0415535 0)
(0.00976354 0.0405543 0)
(0.0129161 0.04049 0)
(0.0170014 0.039173 0)
(0.0218055 0.0357674 0)
(0.0267546 0.0302558 0)
(0.0303182 0.0229616 0)
(0.0318688 0.0151738 0)
(0.0315518 0.0080629 0)
(0.0293986 0.00239216 0)
(0.0259544 -0.00107624 0)
(0.0220984 -0.00232033 0)
(0.018306 -0.00196682 0)
(0.0138698 -8.82631e-05 0)
(0.00894753 0.00535988 0)
(0.00599469 0.0081361 0)
(0.00528468 -0.00395542 0)
(-0.00425868 -0.0414267 0)
(-0.032795 -0.0863055 0)
(-0.0757784 -0.101395 0)
(-0.106227 -0.082075 0)
(-0.122709 -0.0474913 0)
(0.00147118 0.0379089 0)
(0.0043454 0.0363264 0)
(0.00735118 0.0359997 0)
(0.010343 0.0356755 0)
(0.0139592 0.0341837 0)
(0.0180633 0.0309987 0)
(0.022199 0.0262528 0)
(0.0252112 0.0203788 0)
(0.0267295 0.0144031 0)
(0.0268775 0.00901486 0)
(0.0256288 0.00482444 0)
(0.023384 0.00219044 0)
(0.020704 0.00123995 0)
(0.0179554 0.00178374 0)
(0.0150966 0.00383258 0)
(0.0127047 0.0078353 0)
(0.0114664 0.0104431 0)
(0.00811791 0.00397406 0)
(-0.00569362 -0.0197475 0)
(-0.0368879 -0.0509654 0)
(-0.079021 -0.0655217 0)
(-0.105187 -0.0639711 0)
(-0.114143 -0.0372444 0)
(0.00103877 0.0351091 0)
(0.00313377 0.0330043 0)
(0.00528936 0.0328627 0)
(0.00796228 0.0322126 0)
(0.0110962 0.0303203 0)
(0.0145855 0.0270894 0)
(0.0180655 0.0228433 0)
(0.0207154 0.018015 0)
(0.0222787 0.0134212 0)
(0.0228268 0.00937017 0)
(0.0223416 0.00623055 0)
(0.0210948 0.00424805 0)
(0.0194881 0.00352823 0)
(0.0178215 0.00402852 0)
(0.0163081 0.00574836 0)
(0.0153178 0.00871077 0)
(0.0151526 0.0118712 0)
(0.0136834 0.0123441 0)
(0.0040281 0.00254796 0)
(-0.0210762 -0.0177994 0)
(-0.0578432 -0.0326289 0)
(-0.0875706 -0.0456004 0)
(-0.0987023 -0.0331645 0)
(0.000561001 0.033586 0)
(0.00192476 0.0311652 0)
(0.00326312 0.0307051 0)
(0.00543277 0.0294851 0)
(0.0080556 0.0271177 0)
(0.0110297 0.0237977 0)
(0.0140534 0.0198935 0)
(0.0164927 0.015829 0)
(0.0181892 0.0121897 0)
(0.0191064 0.00912407 0)
(0.0192453 0.00677535 0)
(0.0187979 0.00530684 0)
(0.0180492 0.00475979 0)
(0.0172841 0.00513962 0)
(0.0167223 0.00644584 0)
(0.0166684 0.00869731 0)
(0.0173137 0.0116797 0)
(0.0180567 0.0149226 0)
(0.0160782 0.0158406 0)
(0.00521666 0.00840282 0)
(-0.0181402 -0.00103368 0)
(-0.0501325 -0.0192672 0)
(-0.0738525 -0.0263606 0)
(7.83222e-05 0.0329084 0)
(0.000689885 0.0302617 0)
(0.00124334 0.0292507 0)
(0.00285938 0.0273577 0)
(0.00498626 0.0244759 0)
(0.00758018 0.0209448 0)
(0.0103099 0.0172015 0)
(0.0126665 0.0136761 0)
(0.0145263 0.0107363 0)
(0.0157733 0.00839119 0)
(0.0164061 0.00667717 0)
(0.0165542 0.00561041 0)
(0.0164324 0.00520161 0)
(0.0162718 0.00544661 0)
(0.0163363 0.00635218 0)
(0.0169083 0.00798986 0)
(0.0181978 0.0103738 0)
(0.0201565 0.0136169 0)
(0.0223858 0.0171207 0)
(0.0226572 0.0179254 0)
(0.0172054 0.0176113 0)
(0.00317015 0.0125634 0)
(-0.0210961 -0.00195496 0)
(-0.000357404 0.0330238 0)
(-0.000494784 0.030197 0)
(-0.000690082 0.0284663 0)
(0.000405432 0.025784 0)
(0.0021038 0.0222613 0)
(0.00443247 0.0183881 0)
(0.0069986 0.0146383 0)
(0.00935177 0.0114841 0)
(0.0113561 0.00907607 0)
(0.0128748 0.00731642 0)
(0.013867 0.00611392 0)
(0.0144198 0.00539365 0)
(0.0147137 0.00511424 0)
(0.0149487 0.00524733 0)
(0.0153705 0.00582213 0)
(0.0162383 0.00687412 0)
(0.0177559 0.00850252 0)
(0.0201107 0.0109205 0)
(0.0235556 0.0140754 0)
(0.0269785 0.0160988 0)
(0.0290477 0.0181413 0)
(0.0291221 0.0197231 0)
(0.0267988 0.0210687 0)
(-0.000737042 0.0338944 0)
(-0.00159337 0.0308392 0)
(-0.00245046 0.0282676 0)
(-0.00181243 0.0246718 0)
(-0.000460722 0.0203732 0)
(0.00169303 0.0160099 0)
(0.00413265 0.0121433 0)
(0.00652994 0.00922284 0)
(0.00867074 0.00723247 0)
(0.0103776 0.00596959 0)
(0.0116075 0.00523099 0)
(0.0124313 0.00485261 0)
(0.0129743 0.00472658 0)
(0.0134168 0.00481412 0)
(0.0139778 0.0051149 0)
(0.01487 0.00566323 0)
(0.0162842 0.00655068 0)
(0.0185119 0.0079913 0)
(0.0219016 0.0101644 0)
(0.0260026 0.012428 0)
(0.0300919 0.014452 0)
(0.0341558 0.0161052 0)
(0.0379929 0.0162873 0)
(-0.00109621 0.0354552 0)
(-0.00258094 0.0321358 0)
(-0.00396997 0.0285993 0)
(-0.00373675 0.0238934 0)
(-0.00267726 0.0187014 0)
(-0.00068221 0.0137213 0)
(0.00167139 0.00967924 0)
(0.00410045 0.00690181 0)
(0.00634168 0.00524862 0)
(0.0082041 0.00442838 0)
(0.00961011 0.00414006 0)
(0.0105893 0.00411579 0)
(0.0112663 0.0041796 0)
(0.0117923 0.00428586 0)
(0.0123461 0.00441078 0)
(0.013108 0.0045856 0)
(0.0142398 0.00488209 0)
(0.0159964 0.00546051 0)
(0.0186644 0.00650523 0)
(0.0224154 0.00802896 0)
(0.0268842 0.00954159 0)
(0.0317819 0.010814 0)
(0.0371187 0.0125499 0)
(-0.00143215 0.0376324 0)
(-0.00349181 0.0340045 0)
(-0.00536601 0.02935 0)
(-0.00546764 0.0234779 0)
(-0.0045493 0.0172384 0)
(-0.00271229 0.0115561 0)
(-0.000473881 0.00725552 0)
(0.00194027 0.00453253 0)
(0.00425168 0.00315777 0)
(0.00623837 0.00276312 0)
(0.00778663 0.00290957 0)
(0.00888118 0.00325604 0)
(0.00963179 0.00357456 0)
(0.0101677 0.00376238 0)
(0.0106408 0.00381106 0)
(0.0112155 0.00374601 0)
(0.0120265 0.00362447 0)
(0.0132331 0.00354919 0)
(0.0150513 0.00366251 0)
(0.0177649 0.00410384 0)
(0.0214953 0.0048121 0)
(0.0258979 0.00549044 0)
(0.0308864 0.00684385 0)
(-0.00175936 0.0403743 0)
(-0.00433765 0.0363731 0)
(-0.00661519 0.0304352 0)
(-0.00703258 0.0233005 0)
(-0.0062786 0.0160143 0)
(-0.00457798 0.00958627 0)
(-0.00245208 0.00489586 0)
(-0.000101727 0.00213094 0)
(0.0022487 0.000971774 0)
(0.00433995 0.000964709 0)
(0.00601888 0.00155204 0)
(0.00724729 0.00230469 0)
(0.00807157 0.00293722 0)
(0.0085992 0.0032883 0)
(0.00897431 0.00335508 0)
(0.00934551 0.00317381 0)
(0.009829 0.00280329 0)
(0.0105578 0.00231454 0)
(0.0116848 0.00182372 0)
(0.0133961 0.00143663 0)
(0.0158314 0.00121991 0)
(0.019025 0.00122216 0)
(0.0228332 0.00171713 0)
(-0.00205758 0.0436489 0)
(-0.00511884 0.0392019 0)
(-0.00777638 0.0318611 0)
(-0.00847211 0.0233238 0)
(-0.00788598 0.014869 0)
(-0.00639256 0.00775632 0)
(-0.00443434 0.00272151 0)
(-0.00215402 -0.000243379 0)
(0.000202169 -0.00129508 0)
(0.00237478 -0.000976944 0)
(0.00419646 4.18565e-05 0)
(0.00559019 0.00123717 0)
(0.00653277 0.00224364 0)
(0.0070903 0.00285512 0)
(0.00739721 0.00303815 0)
(0.00760168 0.00284791 0)
(0.00782646 0.0023599 0)
(0.0081791 0.00165348 0)
(0.00875534 0.000800478 0)
(0.00968242 -0.000110967 0)
(0.0110665 -0.000991317 0)
(0.0130098 -0.00168773 0)
(0.0154511 -0.00190032 0)
(-0.00235163 0.0474348 0)
(-0.00589299 0.0424387 0)
(-0.0089147 0.0336139 0)
(-0.00985075 0.0235653 0)
(-0.00942286 0.0139052 0)
(-0.00818838 0.00614984 0)
(-0.00647953 0.000699265 0)
(-0.00432906 -0.0024945 0)
(-0.00200567 -0.00357328 0)
(0.000252656 -0.00306322 0)
(0.00221677 -0.00166085 0)
(0.00380796 -1.10102e-05 0)
(0.00493586 0.00143706 0)
(0.00559845 0.00241027 0)
(0.00590176 0.00281727 0)
(0.00599749 0.00270994 0)
(0.00602169 0.00218406 0)
(0.00607807 0.00135144 0)
(0.00625261 0.000282816 0)
(0.00664743 -0.000930419 0)
(0.0073131 -0.00220654 0)
(0.0083316 -0.00338991 0)
(0.00975942 -0.00423818 0)
(-0.00265719 0.0517385 0)
(-0.00668517 0.0461157 0)
(-0.0100908 0.0356983 0)
(-0.0112486 0.0239912 0)
(-0.010956 0.0131123 0)
(-0.0100173 0.0048537 0)
(-0.00857436 -0.00112794 0)
(-0.00655235 -0.00466587 0)
(-0.00431681 -0.00581213 0)
(-0.00207857 -0.00519869 0)
(2.05371e-05 -0.00355345 0)
(0.00183364 -0.00149205 0)
(0.00320494 0.000440338 0)
(0.00406332 0.00186871 0)
(0.00445446 0.00261755 0)
(0.00451698 0.0026966 0)
(0.00441471 0.0022295 0)
(0.00426068 0.00135145 0)
(0.0041354 0.000166952 0)
(0.00414902 -0.00123285 0)
(0.00435416 -0.00277816 0)
(0.00477832 -0.00434093 0)
(0.00560236 -0.00569729 0)
(-0.00297077 0.056584 0)
(-0.00751249 0.050248 0)
(-0.0113042 0.0380932 0)
(-0.0126137 0.0245146 0)
(-0.0125613 0.0125559 0)
(-0.0119758 0.00389466 0)
(-0.0106667 -0.00282267 0)
(-0.00872333 -0.00675526 0)
(-0.00658121 -0.00802349 0)
(-0.00440683 -0.00736453 0)
(-0.00228596 -0.00555331 0)
(-0.000326137 -0.00319469 0)
(0.00130769 -0.000805511 0)
(0.00244403 0.00113913 0)
(0.00302685 0.0023379 0)
(0.00315541 0.00272682 0)
(0.00299923 0.00242027 0)
(0.00269604 0.00157383 0)
(0.00235889 0.000343516 0)
(0.00209971 -0.00117827 0)
(0.00196826 -0.00292801 0)
(0.00201505 -0.00481203 0)
(0.0024582 -0.0066073 0)
(-0.00326512 0.0619581 0)
(-0.00827205 0.0547995 0)
(-0.0123297 0.0407256 0)
(-0.0138704 0.0252202 0)
(-0.0143152 0.0124596 0)
(-0.0139812 0.00308159 0)
(-0.0125956 -0.00449456 0)
(-0.0106587 -0.00878696 0)
(-0.00861934 -0.0101498 0)
(-0.00656912 -0.00949312 0)
(-0.00451903 -0.00761811 0)
(-0.00251456 -0.00507275 0)
(-0.000694242 -0.00232246 0)
(0.000730204 0.000140321 0)
(0.00159089 0.00187995 0)
(0.00188405 0.00270336 0)
(0.00175464 0.00266436 0)
(0.00138435 0.00194752 0)
(0.000906128 0.000732814 0)
(0.000437769 -0.000861667 0)
(6.08749e-05 -0.00277637 0)
(-0.000184488 -0.0049401 0)
(-4.72561e-05 -0.00714346 0)
(-0.0034889 0.0677828 0)
(-0.00884844 0.0596775 0)
(-0.0130403 0.0435188 0)
(-0.0149279 0.0264504 0)
(-0.0159738 0.0128872 0)
(-0.015683 0.0021357 0)
(-0.0140715 -0.00625304 0)
(-0.0121218 -0.0107739 0)
(-0.0102151 -0.012146 0)
(-0.00835951 -0.0114857 0)
(-0.00649027 -0.00961764 0)
(-0.00457633 -0.00701759 0)
(-0.00269317 -0.00404825 0)
(-0.00104151 -0.00115215 0)
(0.000128233 0.00116435 0)
(0.000678214 0.00253129 0)
(0.000674825 0.00288513 0)
(0.000306647 0.00239582 0)
(-0.000250188 0.00126655 0)
(-0.000853778 -0.000348641 0)
(-0.00142928 -0.00238638 0)
(-0.00190511 -0.00478917 0)
(-0.00201953 -0.00735158 0)
(-0.00354136 0.0739441 0)
(-0.0091266 0.0648263 0)
(-0.0134724 0.0464687 0)
(-0.0157544 0.0282171 0)
(-0.0171025 0.01354 0)
(-0.0166009 0.000964829 0)
(-0.0148096 -0.00811499 0)
(-0.0128938 -0.0126872 0)
(-0.0111766 -0.0139514 0)
(-0.00959204 -0.0132456 0)
(-0.00801167 -0.0114193 0)
(-0.00633129 -0.00887658 0)
(-0.00454655 -0.005857 0)
(-0.00279841 -0.00268589 0)
(-0.00135748 0.000146181 0)
(-0.000492306 0.00212663 0)
(-0.000272109 0.00299767 0)
(-0.000548802 0.00284081 0)
(-0.00111689 0.00188181 0)
(-0.0018047 0.000305107 0)
(-0.00251347 -0.00180664 0)
(-0.00317668 -0.00439783 0)
(-0.00351765 -0.0072646 0)
(-0.00337749 0.0800861 0)
(-0.00898669 0.0701381 0)
(-0.013513 0.0496501 0)
(-0.0161154 0.0302838 0)
(-0.0173916 0.0140359 0)
(-0.0165094 -0.000395189 0)
(-0.0146309 -0.0100318 0)
(-0.0128275 -0.0144665 0)
(-0.011376 -0.0154939 0)
(-0.0101391 -0.0146795 0)
(-0.00894097 -0.0128984 0)
(-0.00762051 -0.0104929 0)
(-0.00609752 -0.00758211 0)
(-0.00442771 -0.00434166 0)
(-0.00283248 -0.00115324 0)
(-0.00164793 0.00142199 0)
(-0.00111929 0.00291338 0)
(-0.00121478 0.00321185 0)
(-0.00172042 0.00251406 0)
(-0.00242761 0.00104268 0)
(-0.00322503 -0.00108857 0)
(-0.00402128 -0.00381492 0)
(-0.00453633 -0.00692803 0)
(-0.00301305 0.0859023 0)
(-0.00841418 0.0754104 0)
(-0.013018 0.05306 0)
(-0.0157337 0.0323916 0)
(-0.0167047 0.0142161 0)
(-0.0153761 -0.00195414 0)
(-0.0134704 -0.0119389 0)
(-0.0118694 -0.0160304 0)
(-0.010773 -0.016693 0)
(-0.00995408 -0.0157045 0)
(-0.00920609 -0.0139534 0)
(-0.00833611 -0.0117295 0)
(-0.00720928 -0.0090518 0)
(-0.00579612 -0.00594901 0)
(-0.00422421 -0.00263882 0)
(-0.00280468 0.000394061 0)
(-0.0019182 0.00253687 0)
(-0.00173244 0.0034164 0)
(-0.00209522 0.00309058 0)
(-0.00276751 0.00180349 0)
(-0.00359104 -0.000284282 0)
(-0.00447282 -0.00308548 0)
(-0.00513036 -0.0063851 0)
(-0.00247509 0.0911261 0)
(-0.00742037 0.0804626 0)
(-0.0117956 0.0565354 0)
(-0.0144026 0.0343459 0)
(-0.0149733 0.0140075 0)
(-0.0131434 -0.0037446 0)
(-0.0113386 -0.0137342 0)
(-0.0100724 -0.0172667 0)
(-0.00943315 -0.0174612 0)
(-0.00908831 -0.0162576 0)
(-0.00882207 -0.0145214 0)
(-0.00844113 -0.0124935 0)
(-0.0077907 -0.0101236 0)
(-0.00677672 -0.00732445 0)
(-0.00542303 -0.00414539 0)
(-0.00393848 -0.000899797 0)
(-0.00272828 0.0018096 0)
(-0.00217288 0.00336011 0)
(-0.00229651 0.00353558 0)
(-0.00285856 0.00252643 0)
(-0.00366128 0.00055081 0)
(-0.0045737 -0.00226325 0)
(-0.00531704 -0.00569122 0)
(-0.00176979 0.0954628 0)
(-0.00603195 0.0850492 0)
(-0.00992148 0.0597139 0)
(-0.012149 0.035971 0)
(-0.0120864 0.0133569 0)