/*--------------------------------*- C++ -*----------------------------------*\
| =========                 |                                                 |
| \\      /  F ield         | OpenFOAM: The Open Source CFD Toolbox           |
|  \\    /   O peration     | Version:  2312                                  |
|   \\  /    A nd           | Website:  www.openfoam.com                      |
|    \\/     M anipulation  |                                                 |
\*---------------------------------------------------------------------------*/
FoamFile
{
    version     2.0;
    format      ascii;
    arch        "LSB;label=32;scalar=64";
    class       volScalarField;
    location    "3.6";
    object      alpha.water_0;
}
// * * * * * * * * * * * * * * * * * * * * * * * * * * * * * * * * * * * * * //

dimensions      [0 0 0 0 0 0 0];

internalField   nonuniform List<scalar> 
2268
(
3.78982e-07
2.78763e-07
6.30098e-08
1.36645e-08
4.06588e-09
8.0276e-10
2.45048e-10
1.67838e-10
1.12946e-10
7.89899e-11
5.86586e-11
4.84172e-11
4.51632e-11
4.56156e-11
4.97749e-11
5.84389e-11
7.69897e-11
1.09714e-10
1.51135e-10
2.66954e-10
4.89419e-10
1.0257e-09
1.32004e-09
3.63133e-07
2.57406e-07
6.755e-08
1.37549e-08
1.76357e-09
2.92815e-10
2.48024e-10
1.97454e-10
1.46682e-10
1.15273e-10
1.00967e-10
8.77813e-11
7.69421e-11
7.21152e-11
7.42966e-11
9.37974e-11
1.17108e-10
1.60385e-10
2.44394e-10
4.51786e-10
7.67959e-10
1.64922e-09
1.68658e-09
8.24626e-08
2.45473e-08
1.84622e-08
6.0847e-09
1.09334e-09
1.87001e-10
1.85862e-10
1.664e-10
1.69569e-10
1.70071e-10
1.96182e-10
1.83555e-10
1.54467e-10
1.37882e-10
1.30279e-10
1.40619e-10
1.8807e-10
2.36307e-10
3.26264e-10
4.7965e-10
1.09042e-09
1.93244e-09
1.83104e-09
3.55355e-21
-4.68364e-12
1.66541e-21
-4.62502e-22
6.44736e-21
2.83028e-20
8.09972e-21
5.71897e-17
3.06776e-15
4.69341e-11
1.83531e-10
2.00176e-10
1.76266e-10
1.29302e-10
1.04979e-10
1.05314e-10
1.32367e-10
1.5671e-10
1.98834e-10
2.9933e-10
7.05845e-10
1.46836e-09
1.19969e-09
0.0318769
0.034064
0.0371758
0.0392772
0.037479
0.0303406
0.02068
0.0105734
0.00272672
-3.4163e-21
7.22338e-20
-2.6697e-14
-5.23805e-14
-1.19028e-20
-1.9077e-20
5.42916e-21
4.25033e-21
2.04458e-11
3.82776e-11
6.67164e-11
2.22048e-10
5.64977e-10
4.41983e-10
0.68439
0.691576
0.702148
0.708506
0.703994
0.681377
0.64301
0.584839
0.502209
0.393614
0.296716
0.21359
0.144434
0.0867191
0.0423795
0.0134504
0.000583364
3.19353e-20
1.46318e-20
1.37279e-20
9.06474e-12
5.17811e-11
2.3612e-11
0.996596
0.99484
0.995043
0.996688
0.998727
0.999429
0.9996
0.999555
0.999401
0.997171
0.96038
0.906417
0.85335
0.783046
0.68641
0.554268
0.415547
0.271494
0.124753
0.0319381
3.11948e-13
2.19599e-23
3.11948e-13
0.999606
0.999404
0.999041
0.999595
0.999646
0.999644
0.999645
0.999644
0.999001
0.989983
0.972147
0.97335
0.973415
0.973342
0.960245
0.918998
0.874014
0.797833
0.74145
0.650731
0.521258
0.376576
0.27161
0.0138262
0.0143548
0.0143689
0.00712911
0.00610643
0.0111672
0.0145138
0.0165382
0.0165149
0.015304
0.0148823
0.0143113
0.0126163
0.00958641
0.00679854
0.00450684
0.0044662
0.00628048
0.00635894
0.0188991
0.00699787
0.00565251
0.00536523
0.00514826
0.00503655
0.00498178
0.00456132
0.00449308
0.00442938
0.00354369
0.00270803
0.00214408
0.00208414
0.00209486
0.0021176
0.00278275
0.00296087
0.00288785
0.328208
0.069388
0.0579331
0.083046
0.123752
0.124837
0.11982
0.121424
0.0701222
0.0136773
0.00209352
0.00208183
0.00207966
0.00209427
0.00208231
0.00209265
0.00208248
0.00212838
0.00244423
0.525098
0.511298
0.58474
0.595195
0.571864
0.569344
0.604624
0.769766
0.689847
0.309171
0.0870932
0.1432
0.411847
0.613596
0.575549
0.434869
0.272842
0.234637
0.22508
0.63898
0.851892
0.969247
0.969248
0.950594
0.931057
0.929341
0.968861
0.950411
0.490057
0.382665
0.84677
0.901615
0.90572
0.905964
0.899946
0.877848
0.625876
0.473719
0.857929
0.969246
0.969247
0.969251
0.968577
0.968874
0.96887
0.968866
0.952751
0.461044
0.517399
0.901033
0.905838
0.905845
0.905852
0.905848
0.905862
0.825234
0.785855
0.720821
0.969245
0.969252
0.969252
0.969252
0.96887
0.968865
0.968406
0.855711
0.434735
0.713666
0.831447
0.888959
0.877882
0.905853
0.905864
0.905851
0.905856
0.90584
0.653752
0.956383
0.969247
0.910718
0.940983
0.942182
0.96886
0.942422
0.746825
0.436935
0.536399
0.615035
0.783766
0.872224
0.905851
0.905858
0.90572
0.90584
0.905847
0.999606
0.999606
0.999606
0.999594
0.999613
0.999636
0.999632
0.999644
0.994868
0.950884
0.950095
0.955019
0.97059
0.939383
0.852613
0.852307
0.852901
0.88124
0.973522
0.990325
0.988705
0.981866
0.96733
0.99957
0.998734
0.998285
0.998814
0.999642
0.999643
0.999643
0.999643
0.999643
0.98175
0.950275
0.950234
0.955286
0.985523
0.982719
0.980337
0.987671
0.987665
0.991178
0.991157
0.976613
0.942882
0.814624
0.999394
0.997569
0.992493
0.999521
0.999641
0.999601
0.999628
0.999586
0.999643
0.999028
0.987069
0.974671
0.985538
0.985536
0.984694
0.981408
0.97951
0.97764
0.842916
0.642211
0.552958
0.529267
0.507724
0.969718
0.851716
0.897728
0.970443
0.976318
0.979609
0.973945
0.95981
0.978399
0.997774
0.993776
0.98161
0.967194
0.941335
0.867652
0.795468
0.669227
0.520442
0.158575
0.0288661
0.0103351
0.0109259
0.002288
0.607
0.412708
0.327482
0.63711
0.872939
0.923785
0.92788
0.92181
0.925008
0.906049
0.836241
0.747879
0.596844
0.341793
0.138186
0.0223161
0.0321299
0.00920572
4.5293e-05
3.66834e-05
0.000329723
0.000953134
0.00142089
0.0304203
0.00569812
3.54416e-05
0.0193976
0.2081
0.400458
0.459722
0.458162
0.386308
0.239834
0.136965
0.0453997
1.59746e-06
1.56609e-06
1.59795e-06
1.58169e-06
0.00046655
8.8239e-05
8.6246e-05
0.00032968
0.000484339
0.000797765
0.00462521
0.00013061
0.000115583
3.56276e-05
1.38755e-09
3.16413e-29
-9.74959e-15
0.0015084
0.000871689
4.25232e-07
4.93898e-07
4.25232e-07
5.06881e-07
0.000888114
0.00280714
0.00250809
0.00137019
0.00105674
0.00123277
0.00191885
0.00269431
0.00198047
0.00441651
0.0190518
0.000309473
0.000126805
1.30087e-05
2.34765e-06
2.29922e-23
-1.0166e-23
-8.61278e-25
-1.11107e-06
1.34586e-05
0.00035421
0.000730882
0.00552298
0.0121939
0.0111775
0.00789467
0.00369134
0.00273001
0.00257074
0.0028212
0.00344776
0.00383521
0.00415426
0.00869854
0.000128463
0.000129459
0.000164899
0.000142201
6.29091e-05
2.78025e-05
3.27273e-06
0.00141651
0.00577662
0.00733592
0.00300423
0.012432
0.0124297
0.00491631
0.000731345
0.000324394
1.58441e-06
1.06683e-07
1.84466e-07
5.00914e-07
2.52963e-06
8.54397e-05
1.01231e-05
0.00012905
0.000636883
0.000482018
0.000272126
0.000205733
0.000139337
0.000409383
0.000694422
0.00345575
0.0076184
0.0075536
0.00558838
0.00162397
6.07176e-06
3.44671e-07
2.72872e-07
1.83182e-07
2.80002e-07
1.86763e-06
2.84629e-06
9.96793e-07
8.109e-07
7.67099e-07
0.00200643
0.0051284
0.00780093
0.0102446
0.0107604
0.0111402
0.0157673
0.0179346
0.0134219
0.00692683
0.0076184
0.00387108
4.05095e-07
4.04014e-07
7.15747e-07
9.32064e-07
6.32179e-07
5.23604e-07
3.95849e-06
5.54609e-06
4.80742e-06
8.12351e-07
9.21953e-07
0.00462059
0.00481466
0.00782461
0.0151592
0.0189626
0.0187936
0.019192
0.0177907
0.00526488
0.00103884
0.00308586
0.00107992
5.9107e-07
4.05096e-07
5.51905e-07
1.49019e-06
1.49234e-06
1.45865e-06
1.51108e-06
2.85144e-06
6.82569e-06
8.85909e-06
3.70981e-06
0.000376772
5.36792e-07
1.06582e-07
2.60125e-08
5.12386e-09
4.49762e-09
1.88373e-08
3.71586e-08
2.11628e-05
3.9206e-10
1.83345e-13
-3.36309e-10
4.7738e-07
4.93049e-07
1.98294e-07
1.98049e-07
4.29496e-07
8.92433e-07
1.09281e-06
1.17255e-05
2.68167e-05
1.19282e-05
6.41318e-07
9.19309e-08
1.91958e-07
3.38006e-07
1.27277e-07
2.53592e-08
3.66046e-08
2.49844e-07
1.23355e-06
1.66225e-06
2.90996e-13
6.01221e-15
2.5049e-07
6.0038e-07
6.06533e-07
1.96373e-07
1.96927e-07
3.17745e-07
3.23283e-07
1.63643e-05
2.68167e-05
2.68167e-05
2.13464e-05
1.43748e-06
1.14778e-07
5.21783e-07
7.24688e-07
3.91931e-07
8.1849e-08
5.12172e-08
2.15423e-07
3.56211e-07
1.11573e-07
1.01903e-07
2.44204e-07
3.71171e-07
1.33225e-07
1.31704e-07
1.33176e-07
1.95779e-06
7.26554e-06
2.60864e-05
2.78585e-05
2.64522e-05
1.62316e-05
1.8821e-06
1.44771e-07
1.29549e-07
4.73768e-07
7.11406e-07
6.73409e-07
9.78282e-08
2.02682e-07
3.47513e-07
3.48801e-07
1.44765e-07
1.09879e-07
1.27225e-07
2.09519e-07
6.97014e-06
1.8931e-05
2.03139e-05
3.20905e-05
3.42409e-05
2.74618e-05
3.25241e-06
2.54628e-07
2.77848e-08
7.05195e-10
6.82373e-09
3.94703e-08
1.34977e-07
2.73285e-07
1.30715e-07
1.63696e-07
1.52155e-07
8.05508e-08
8.23438e-08
4.74332e-07
8.48436e-06
1.36969e-05
1.36353e-05
1.08709e-05
1.82181e-05
2.16829e-05
1.25159e-05
2.48004e-06
8.23133e-07
8.92611e-10
8.76961e-10
8.56973e-10
6.8207e-10
2.69594e-10
1.05372e-08
4.61041e-09
2.78983e-09
2.7944e-09
4.3272e-08
8.04606e-08
5.41216e-08
4.71017e-07
7.7984e-06
9.51975e-06
9.00139e-06
4.78846e-06
1.06119e-06
2.01427e-06
3.16674e-06
1.83871e-09
1.83038e-09
1.82194e-09
1.81439e-09
1.59924e-09
1.18621e-09
7.9177e-10
3.38612e-10
1.01397e-08
4.6705e-09
2.78488e-09
3.46149e-09
5.29221e-09
8.64994e-09
5.69915e-08
1.39355e-06
2.55935e-06
1.81055e-06
1.06358e-07
1.38284e-09
1.37562e-09
1.36843e-09
1.36136e-09
2.33508e-09
2.47333e-09
2.39431e-09
2.00338e-09
1.40127e-09
9.40112e-10
6.11625e-10
5.35835e-10
1.0407e-08
4.5405e-09
2.78068e-09
3.61462e-09
1.04875e-08
4.30652e-08
1.33448e-07
1.5945e-07
4.13507e-08
2.15111e-08
6.70895e-09
3.69209e-09
2.60259e-09
1.8367e-09
1.35423e-09
1.32887e-09
1.28609e-09
1.20434e-09
1.0739e-09
8.48532e-10
5.80655e-10
4.18111e-10
4.12066e-10
1.18961e-08
3.81065e-09
2.16301e-09
2.72638e-09
5.32853e-09
1.09933e-08
1.39309e-08
6.44838e-09
2.59794e-09
2.17422e-09
1.8441e-09
1.38551e-09
1.11584e-09
8.38322e-10
6.73757e-10
6.09093e-10
6.01723e-10
6.03452e-10
5.59855e-10
4.73596e-10
3.13679e-10
2.05894e-10
2.89917e-10
1.32526e-08
2.95052e-09
1.45054e-09
1.36368e-09
1.87119e-09
2.7854e-09
3.04616e-09
1.11041e-09
8.29639e-10
6.47e-10
5.62207e-10
4.79915e-10
3.77798e-10
3.16373e-10
2.8258e-10
2.73346e-10
2.80169e-10
2.73459e-10
2.5208e-10
2.18204e-10
1.50378e-10
1.29447e-10
1.52931e-10
1.73849e-08
2.13463e-09
1.01622e-09
7.18423e-10
7.46792e-10
8.29821e-10
7.07598e-10
4.08316e-10
2.95152e-10
2.24651e-10
1.82195e-10
1.47552e-10
1.27252e-10
1.15629e-10
1.10058e-10
1.09887e-10
1.12255e-10
1.10015e-10
1.05254e-10
9.32413e-11
7.41071e-11
6.23274e-11
8.77961e-11
3.23261e-08
1.46917e-09
8.12012e-10
3.88678e-10
2.98151e-10
2.52148e-10
1.93924e-10
1.35563e-10
1.01165e-10
7.83863e-11
6.19564e-11
5.07382e-11
4.3792e-11
4.02138e-11
3.88377e-11
3.87814e-11
3.88441e-11
3.8481e-11
3.72711e-11
3.47274e-11
3.15441e-11
3.5392e-11
4.52448e-11
4.04803e-08
8.76662e-10
6.26362e-10
2.84272e-10
1.81041e-10
1.43136e-10
1.08037e-10
8.28733e-11
6.24701e-11
4.67511e-11
3.48418e-11
2.57826e-11
1.96134e-11
1.55183e-11
1.34556e-11
1.24932e-11
1.22086e-11
1.21673e-11
1.21751e-11
1.24855e-11
1.34146e-11
1.44556e-11
2.3795e-11
4.1578e-08
7.51567e-10
4.53717e-10
2.60568e-10
1.86091e-10
1.55775e-10
1.38453e-10
1.1345e-10
8.65143e-11
6.51804e-11
4.81141e-11
3.23059e-11
2.01591e-11
1.19479e-11
7.09675e-12
4.81803e-12
3.76211e-12
3.54131e-12
3.68404e-12
4.17275e-12
4.65498e-12
7.31012e-12
1.03934e-11
4.8214e-08
6.6273e-10
2.88628e-10
2.60061e-10
2.31871e-10
2.24858e-10
2.04003e-10
1.6953e-10
1.32009e-10
1.07342e-10
8.08788e-11
5.47362e-11
3.28906e-11
1.75139e-11
8.36716e-12
3.68549e-12
1.78037e-12
1.10958e-12
1.0687e-12
1.33783e-12
1.87568e-12
2.52008e-12
4.99361e-12
5.4091e-08
1.4372e-09
2.47385e-10
3.15989e-10
3.28651e-10
3.2453e-10
2.97866e-10
2.44555e-10
1.88203e-10
1.63996e-10
1.28435e-10
8.88943e-11
5.40743e-11
2.84017e-11
1.30437e-11
5.19082e-12
1.83376e-12
6.42012e-13
3.54903e-13
4.00326e-13
5.42744e-13
1.13718e-12
1.86768e-12
6.99147e-08
2.9646e-09
2.35619e-10
3.74824e-10
4.08444e-10
4.0655e-10
4.01207e-10
3.98932e-10
2.97372e-10
2.27409e-10
1.80035e-10
1.27843e-10
8.00635e-11
4.34858e-11
2.02791e-11
8.14067e-12
2.72526e-12
8.27142e-13
2.03266e-13
1.25558e-13
1.98543e-13
3.19008e-13
7.52618e-13
7.70923e-08
5.64032e-09
2.12432e-10
3.39137e-10
3.345e-10
3.56909e-10
4.70129e-10
6.81835e-10
6.42163e-10
3.15642e-10
2.30613e-10
1.66091e-10
1.07033e-10
5.95645e-11
2.89367e-11
1.19797e-11
4.09541e-12
1.1692e-12
2.84005e-13
6.19832e-14
4.94304e-14
1.31868e-13
2.40025e-13
9.79655e-08
7.24781e-09
2.0136e-10
2.36568e-10
3.26777e-10
1.0617e-09
2.28683e-09
1.9878e-09
1.98927e-09
5.86853e-10
2.86029e-10
1.96612e-10
1.29798e-10
7.43064e-11
3.74599e-11
1.63036e-11
5.87586e-12
1.72214e-12
4.16569e-13
6.16472e-14
2.08085e-14
3.16576e-14
8.81005e-14
1.04958e-07
9.44143e-09
2.01503e-10
6.65726e-10
6.70695e-09
3.26553e-08
4.78669e-08
2.1807e-08
5.5568e-09
1.27889e-09
3.74785e-10
2.14522e-10
1.42353e-10
8.29894e-11
4.33452e-11
1.99842e-11
7.67137e-12
2.3479e-12
5.75284e-13
1.00973e-13
1.29136e-14
1.05822e-14
2.42208e-14
1.30226e-07
1.24932e-08
1.00192e-09
2.1743e-08
1.35844e-07
3.66298e-07
7.78915e-07
2.84558e-07
1.00883e-08
2.4968e-09
5.50903e-10
2.28086e-10
1.41495e-10
8.28164e-11
4.38858e-11
2.12428e-11
8.84828e-12
2.96819e-12
7.65331e-13
1.54514e-13
1.54352e-14
2.82689e-15
7.15516e-15
1.35782e-07
1.65772e-08
2.1081e-10
1.65004e-08
2.70854e-07
7.9351e-07
1.41018e-06
1.22832e-06
7.53478e-09
5.24385e-09
8.55262e-10
2.32118e-10
1.28325e-10
7.37538e-11
3.92138e-11
1.94912e-11
8.78868e-12
3.23628e-12
9.18083e-13
1.96289e-13
2.49571e-14
1.62982e-15
1.74833e-15
1.67876e-07
4.69178e-08
2.08599e-10
1.5134e-08
1.27426e-07
6.62138e-07
1.41024e-06
1.19764e-06
3.94154e-08
6.00427e-09
9.50355e-10
2.1854e-10
1.06096e-10
5.95025e-11
3.10272e-11
1.55147e-11
7.36438e-12
3.01563e-12
9.40639e-13
2.11586e-13
3.43544e-14
1.55754e-15
4.29871e-16
1.71382e-07
8.90662e-08
4.68487e-10
3.48074e-09
1.45603e-08
1.83164e-07
1.28651e-06
1.73601e-07
3.00199e-08
4.60296e-09
8.85511e-10
1.71336e-10
7.84077e-11
4.26539e-11
2.11023e-11
1.03322e-11
5.07934e-12
2.28946e-12
8.16752e-13
2.05716e-13
3.54906e-14
2.18928e-15
1.55058e-16
1.72681e-07
1.61559e-07
4.84924e-08
3.70559e-09
2.19612e-09
2.81803e-08
1.75806e-07
4.90957e-08
1.49534e-08
2.82487e-09
5.63444e-10
1.07408e-10
5.02672e-11
2.64512e-11
1.22961e-11
5.67399e-12
2.79201e-12
1.34764e-12
5.51555e-13
1.59836e-13
3.11318e-14
2.47454e-15
8.76969e-17
1.46399e-07
1.69211e-07
8.83798e-08
1.31959e-08
1.55254e-09
2.5692e-08
2.81675e-10
2.85074e-10
9.70195e-10
1.01597e-09
2.3931e-10
5.35584e-11
2.81498e-11
1.42038e-11
6.03999e-12
2.51998e-12
1.16639e-12
5.79252e-13
2.67229e-13
9.43992e-14
2.08405e-14
2.44662e-15
8.50182e-17
9.95484e-08
1.61301e-07
6.16615e-08
1.48769e-08
1.55042e-09
2.43693e-09
1.56657e-09
5.70448e-10
2.00286e-10
9.32793e-11
3.77609e-11
2.11797e-11
1.33999e-11
6.51765e-12
2.51222e-12
9.06197e-13
3.5998e-13
1.65266e-13
8.61969e-14
3.96283e-14
1.13594e-14
1.54012e-15
8.11824e-17
3.28116e-08
7.83132e-08
4.44513e-08
7.16394e-09
2.89609e-09
3.01486e-09
2.21949e-09
9.4946e-10
2.85906e-10
7.07854e-11
1.64865e-11
8.10685e-12
5.16656e-12
2.46577e-12
8.98141e-13
2.68959e-13
8.24896e-14
3.11428e-14
1.65297e-14
1.12259e-14
3.95513e-15
7.69639e-16
6.58517e-17
1.41874e-08
3.18465e-08
1.32503e-08
7.42895e-09
5.66545e-09
3.89518e-09
1.79795e-09
5.28241e-10
1.056e-10
1.67698e-11
3.36514e-12
2.03166e-12
1.37856e-12
6.66695e-13
2.25689e-13
5.7094e-14
1.25176e-14
3.26303e-15
1.87725e-15
1.97685e-15
1.05158e-15
3.32242e-16
4.63118e-17
5.32858e-08
4.46022e-08
2.32652e-08
8.8992e-09
4.87832e-09
2.05314e-09
5.79186e-10
8.44618e-11
7.12979e-12
4.01727e-13
2.65956e-13
2.75969e-13
2.04895e-13
1.00888e-13
3.29185e-14
7.08817e-15
1.07628e-15
1.84336e-16
1.29376e-16
2.33649e-16
2.48561e-16
1.17322e-16
2.40674e-17
0.974618
0.946359
0.766603
0.617696
0.721444
0.699864
0.584936
0.629701
0.467829
0.445297
0.413782
0.478797
0.0025654
0.0114255
0.0268385
0.00270678
0.00136516
0.000872063
0.000236915
0.000197705
0.0197084
0.0201799
0.0174581
0.0105795
0.0201799
0.0201795
0.0201798
0.0201795
0.017602
0.0201798
0.0150398
0.015803
0.0017709
0.00295732
0.00104918
0.00101145
2.91127e-06
3.69307e-06
3.58767e-07
3.45343e-07
2.81147e-06
6.34243e-06
6.40382e-06
5.59572e-06
2.98653e-07
2.28053e-06
2.30392e-06
2.43473e-06
2.31685e-07
3.93436e-07
3.06504e-07
2.49856e-07
2.50113e-07
1.03905e-07
6.12994e-08
6.11384e-08
1.56613e-07
1.92588e-07
1.92096e-07
7.27285e-08
2.40834e-08
4.19953e-08
5.34949e-08
2.74873e-08
1.42396e-09
1.25747e-09
2.31848e-08
2.31188e-08
2.49814e-09
9.30415e-10
1.96567e-08
4.42423e-08
6.02702e-10
9.36065e-10
2.67699e-09
3.49108e-09
6.46213e-10
1.41499e-09
2.9767e-09
5.09019e-09
5.36657e-10
9.32271e-10
1.84789e-09
2.88995e-09
2.41555e-10
3.97005e-10
6.0359e-10
8.90879e-10
1.23427e-10
1.69591e-10
2.58997e-10
3.08603e-10
6.45811e-11
8.61351e-11
1.11246e-10
1.39798e-10
3.31375e-11
4.02846e-11
5.86809e-11
7.12708e-11
1.6534e-11
2.15104e-11
2.71124e-11
3.52028e-11
7.05119e-12
8.83098e-12
1.32868e-11
1.62624e-11
3.09126e-12
4.03611e-12
5.02448e-12
6.87087e-12
1.1486e-12
1.45118e-12
2.23405e-12
2.73848e-12
4.36531e-13
6.00645e-13
7.43105e-13
1.01701e-12
1.45504e-13
1.88149e-13
2.85461e-13
3.34985e-13
4.96822e-14
6.87186e-14
8.58738e-14
1.23966e-13
1.37027e-14
1.91965e-14
2.86475e-14
3.2924e-14
4.25645e-15
5.72293e-15
7.83134e-15
1.14421e-14
9.02556e-16
1.35786e-15
2.21593e-15
2.77454e-15
2.31523e-16
3.62223e-16
5.29916e-16
8.03326e-16
4.77275e-17
8.08633e-17
1.39507e-16
1.84112e-16
1.07416e-17
1.7042e-17
2.61436e-17
4.10942e-17
2.28339e-18
2.9526e-18
5.24651e-18
7.44124e-18
8.04552e-19
5.502e-19
7.81148e-19
1.39094e-18
6.27146e-19
1.38365e-19
1.45616e-19
2.19333e-19
6.22926e-19
5.52382e-20
2.67786e-20
3.1561e-20
0.649366
0.953246
0.743636
0.40434
0.471351
0.609317
0.757329
0.790574
0.502998
0.50317
0.55998
0.768307
0.835016
0.855358
0.584887
0.329142
0.21732
0.554598
0.578513
0.717365
0.614143
0.182446
0.000289034
0.000768525
0.0562942
0.327115
0.362622
0.129566
0.225713
0.626875
0.664594
0.374821
0.0960736
0.0107593
0.00253811
0.00208357
0.00947377
0.0108055
0.461384
0.122258
5.58581e-21
3.17033e-23
-2.44421e-20
0.0262153
0.277394
0.331501
0.0958158
0.0901166
0.0504491
0.0729506
0.0175698
0.000245046
0.00218618
0.00283943
0.00286151
0.00243794
0.00238749
9.32419e-11
-4.94404e-09
-1.70713e-22
-7.65467e-22
-8.80442e-21
0.0593612
0.413052
0.438825
0.438956
0.158247
0.000176516
0.000176524
0.000176776
0.000244085
0.00145213
0.00208269
0.00520668
0.00519471
0.00493625
1.0926e-05
1.93544e-05
0.000158269
0.00031233
-6.67598e-07
0.0310029
0.120495
0.0844171
0.140855
0.0847818
0.000291629
0.000176516
0.000176524
0.000196556
0.000236081
0.000127325
0.000127423
0.00331028
0.00557512
0.00327748
3.27262e-05
0.000560645
0.000716503
0.000672214
0.00234896
0.00147614
0.00110893
0.00123011
0.0124921
0.0169343
0.00222817
0.000488006
0.000484961
0.000163838
0.000166222
0.000729999
0.000192522
0.00252448
0.0188466
0.00175363
0.00259269
0.00310579
0.00280664
0.00215313
0.00148307
0.00109457
0.00083161
0.00138117
0.00458481
0.00608709
0.00292767
0.00116103
0.000319918
0.000891495
0.00202612
0.000169554
1.52672e-05
0.0176138
0.0118525
0.00408699
0.00475789
0.0047579
0.00402026
0.0030731
0.00229883
0.0012196
0.000783968
0.000905188
0.00174191
0.00186996
0.00124126
0.000512925
0.00100337
0.00172587
0.000666974
1.53156e-05
0.00302064
0.00374307
0.00124691
0.00441656
0.00447269
0.00189893
0.00128115
0.000934988
0.000546658
0.000350045
0.000199703
7.4918e-05
2.2251e-05
4.48429e-05
6.52424e-05
7.18026e-07
6.77072e-07
6.39029e-05
7.21089e-05
5.54304e-07
8.82479e-07
0.000116471
0.000803579
0.000551044
3.52785e-05
1.64019e-05
8.66514e-06
8.931e-06
1.04331e-05
1.42329e-05
8.36432e-06
3.66608e-09
2.62602e-09
3.94571e-09
7.19445e-06
4.18858e-06
4.64326e-08
3.03606e-05
1.77693e-06
9.72915e-07
1.26603e-06
1.1431e-06
1.12999e-06
3.20526e-05
7.4349e-05
6.99439e-05
2.92814e-05
1.57237e-05
1.60023e-05
8.18544e-06
4.14782e-06
3.95057e-06
9.94775e-06
2.11147e-05
1.85791e-05
4.64326e-08
4.64326e-08
1.1349e-05
1.82231e-05
8.18832e-06
1.12999e-06
1.34231e-06
4.80129e-05
7.51065e-05
7.2151e-05
3.64893e-05
1.88344e-05
1.66686e-05
1.31118e-05
1.04631e-05
1.33511e-05
8.19375e-06
1.71742e-05
1.21675e-05
4.64326e-08
4.64326e-08
2.83898e-06
1.91256e-05
2.09483e-05
1.97639e-05
1.12872e-05
1.35468e-05
1.31152e-05
1.19481e-05
6.54621e-06
4.76362e-06
1.45675e-06
6.06856e-08
9.31588e-06
2.90134e-05
2.07198e-06
1.23747e-06
1.2329e-06
1.44722e-06
4.64326e-08
1.05285e-07
3.67221e-06
1.27367e-05
1.2335e-05
2.77517e-05
2.69543e-05
8.40727e-06
5.02278e-06
2.18003e-06
2.99551e-07
6.09324e-08
6.01201e-08
1.25679e-05
2.89776e-05
1.75115e-05
1.23343e-06
1.01668e-05
1.94498e-05
5.27795e-06
1.06319e-07
1.31712e-06
1.51917e-06
9.03301e-08
1.07111e-05
5.75783e-05
5.85696e-05
4.00962e-05
5.03754e-06
1.61697e-06
2.29098e-07
6.05659e-08
4.35774e-06
2.89161e-05
2.89952e-05
4.76022e-06
2.20784e-05
2.23275e-05
1.80896e-05
4.19321e-08
1.74642e-07
5.29482e-07
9.80281e-08
2.60058e-09
3.2968e-05
5.89166e-05
5.65772e-05
4.41086e-05
3.25258e-06
6.05343e-08
6.03377e-08
7.75672e-08
1.19041e-05
2.89433e-05
9.27945e-06
2.22665e-05
2.13929e-05
2.08648e-05
6.2249e-08
8.91759e-08
6.98296e-08
2.63931e-08
2.58574e-09
2.46952e-07
3.94586e-05
4.47688e-05
3.25639e-05
2.8422e-06
3.47249e-06
6.28599e-06
1.38927e-06
3.10872e-06
2.72951e-05
1.31103e-05
1.42566e-05
6.98697e-06
6.97732e-06
2.16457e-08
6.09477e-09
1.24461e-08
2.5848e-09
2.58568e-09
2.5848e-09
7.56024e-06
3.25503e-05
3.23733e-05
2.60593e-05
2.58753e-05
1.66918e-05
2.65706e-07
2.64822e-08
2.35513e-05
1.22891e-05
7.02602e-06
6.99047e-06
6.99482e-06
3.60764e-09
3.60704e-09
9.22111e-09
4.96202e-07
2.08587e-06
5.04464e-06
1.24105e-05
2.60018e-05
2.83903e-05
2.78147e-05
2.55884e-05
5.99458e-06
2.64032e-08
2.63363e-08
2.27548e-05
1.23811e-05
7.04005e-06
6.99436e-06
1.33393e-05
5.8395e-09
4.50124e-09
4.50831e-09
3.77387e-07
2.51798e-06
4.07083e-06
3.96119e-06
5.78689e-06
1.11635e-05
1.12149e-05
3.40777e-06
3.82766e-08
2.63364e-08
3.5947e-06
5.82494e-06
3.55823e-06
9.86111e-06
9.42794e-06
1.40835e-05
3.53848e-09
5.46261e-09
1.20572e-08
2.7931e-08
8.65732e-08
3.16857e-08
2.05712e-09
2.0571e-09
2.05491e-09
2.0571e-09
2.05728e-09
1.51163e-08
1.29574e-07
1.3457e-06
1.52537e-08
1.52632e-08
8.53569e-06
1.09089e-05
1.26343e-05
1.04104e-09
1.20025e-09
1.52841e-09
1.59777e-09
1.95438e-09
3.34564e-09
3.65925e-09
3.93092e-09
4.17719e-09
6.79214e-09
1.00117e-08
6.02274e-08
2.05612e-07
2.99945e-08
1.53191e-08
9.59059e-08
2.05198e-09
2.81369e-06
2.41412e-07
3.55592e-10
4.31678e-10
5.8348e-10
8.56851e-10
1.45974e-09
2.69954e-09
3.84058e-09
4.99411e-09
6.05605e-09
8.34797e-09
1.3455e-08
4.08646e-08
1.53473e-07
4.17128e-08
1.99564e-08
1.59404e-08
2.04679e-09
3.03745e-07
2.47995e-07
1.65543e-10
2.41588e-10
3.4478e-10
5.02918e-10
7.71675e-10
1.25011e-09
2.01682e-09
3.02423e-09
4.18801e-09
6.08007e-09
1.19366e-08
2.25841e-08
3.75443e-08
2.65359e-08
1.27804e-08
2.40952e-09
2.05199e-09
3.78474e-07
2.35303e-07
8.87724e-11
1.35029e-10
1.99077e-10
2.90965e-10
4.32806e-10
6.45962e-10
1.03146e-09
1.69266e-09
2.80975e-09
4.74975e-09
9.41251e-09
1.44599e-08
2.0584e-08
1.82183e-08
5.94086e-09
2.31292e-09
4.21472e-08
4.83395e-07
2.37076e-07
4.40653e-11
7.0879e-11
1.09403e-10
1.67841e-10
2.60573e-10
4.14389e-10
6.88474e-10
1.14815e-09
1.93046e-09
3.36677e-09
6.73012e-09
1.17575e-08
1.80356e-08
1.77786e-08
5.70336e-09
1.81134e-08
1.84858e-07
3.01054e-07
7.33224e-08
2.12131e-11
3.37686e-11
5.35169e-11
8.46916e-11
1.34631e-10
2.24144e-10
3.8431e-10
6.74171e-10
1.18664e-09
2.07645e-09
4.04531e-09
8.46864e-09
1.35091e-08
1.7539e-08
7.90084e-09
8.24658e-08
2.15323e-07
1.39055e-07
7.26246e-08
8.81034e-12
1.44238e-11
2.29686e-11
3.6838e-11
6.08396e-11
1.02957e-10
1.82433e-10
3.3005e-10
6.03408e-10
1.0858e-09
1.97776e-09
4.13217e-09
7.12948e-09
1.11412e-08
2.63618e-08
7.18635e-08
7.08984e-08
1.8002e-08
3.48737e-07
3.58777e-12
5.77435e-12
9.13976e-12
1.47387e-11
2.40825e-11
4.13608e-11
7.60294e-11
1.41793e-10
2.695e-10
5.13572e-10
9.20627e-10
1.71863e-09
3.41642e-09
3.32976e-09
1.61201e-08
2.2836e-08
1.35594e-08
4.16108e-09
4.68042e-07
1.3201e-12
2.15157e-12
3.4071e-12
5.37411e-12
8.91773e-12
1.52088e-11
2.75369e-11
5.70252e-11
1.17099e-10
2.36692e-10
4.40812e-10
7.17556e-10
1.06962e-09
8.79013e-10
2.5763e-09
2.98001e-09
3.14576e-09
4.16276e-09
4.67428e-07
4.55879e-13
7.4764e-13
1.1619e-12
1.76606e-12
2.79243e-12
4.8529e-12
8.54002e-12
1.48789e-11
2.41341e-11
4.40834e-11
1.05402e-10
2.57539e-10
3.67868e-10
2.13211e-10
1.98961e-10
2.059e-09
3.61151e-09
5.43486e-09
3.10854e-07
1.55701e-13
2.45676e-13
3.51963e-13
5.21128e-13
7.99431e-13
1.23907e-12
1.92266e-12
2.78155e-12
3.4515e-12
5.14561e-12
1.53472e-11
4.97067e-11
1.2484e-10
7.1147e-11
1.99086e-10
9.485e-10
4.63995e-09
1.59599e-08
6.98071e-09
4.78793e-14
7.06475e-14
1.02526e-13
1.46114e-13
2.08471e-13
3.02099e-13
4.31431e-13
5.79569e-13
6.79297e-13
7.72225e-13
2.03591e-12
7.8203e-12
2.54994e-11
4.14012e-11
1.66527e-10
9.2154e-10
4.39519e-09
1.73403e-08
9.61533e-10
1.40778e-14
2.11039e-14
2.91284e-14
3.90787e-14
5.23618e-14
7.10724e-14
9.67047e-14
1.26494e-13
1.53401e-13
1.94539e-13
4.28579e-13
1.7247e-12
7.18729e-12
2.3221e-11
5.90702e-11
5.12794e-10
2.28082e-09
9.19956e-09
9.31173e-10
4.05596e-15
5.75717e-15
7.79374e-15
1.01011e-14
1.30337e-14
1.716e-14
2.2961e-14
3.01684e-14
3.83352e-14
5.2455e-14
1.16279e-13
4.71254e-13
2.04221e-12
7.78425e-12
2.10597e-11
1.19133e-10
6.74234e-10
9.64281e-10
8.19958e-10
9.98336e-16
1.48897e-15
1.99922e-15
2.56078e-15
3.28735e-15
4.39145e-15
6.12696e-15
8.69438e-15
1.23886e-14
1.90776e-14
3.816e-14
1.20217e-13
4.98772e-13
2.02781e-12
7.24873e-12
2.15958e-11
7.14522e-11
1.9167e-10
4.12963e-10
2.38686e-16
3.57778e-16
4.8559e-16
6.32144e-16
8.43453e-16
1.2086e-15
1.89908e-15
3.26069e-15
5.87358e-15
1.09345e-14
2.20456e-14
5.32895e-14
1.67805e-13
5.54332e-13
1.98362e-12
6.37085e-12
2.2163e-11
4.76647e-11
1.86086e-10
5.16269e-17
7.94771e-17
1.10434e-16
1.49587e-16
2.13365e-16
3.49295e-16
6.74832e-16
1.45002e-15
3.21821e-15
7.07422e-15
1.52277e-14
3.35234e-14
8.56792e-14
2.50738e-13
6.41657e-13
1.44189e-12
5.60193e-12
1.95427e-11
2.1516e-11
1.02574e-17
1.56672e-17
2.26094e-17
3.28516e-17
5.19412e-17
1.00261e-16
2.39044e-16
6.34625e-16
1.70225e-15
4.31019e-15
1.00498e-14
2.20747e-14
5.02565e-14
1.29173e-13
3.24775e-13
7.37297e-13
1.23256e-12
2.48752e-12
5.24022e-12
1.82772e-18
2.79158e-18
4.19282e-18
6.51504e-18
1.15924e-17
2.66931e-17
7.83724e-17
2.53068e-16
7.94639e-16
2.28298e-15
5.96263e-15
1.42635e-14
3.22372e-14
7.49616e-14
1.86838e-13
3.96268e-13
5.19599e-13
6.63922e-13
7.28351e-13
2.74293e-19
4.28703e-19
6.66688e-19
1.10947e-18
2.19961e-18
5.78021e-18
1.97999e-17
7.46423e-17
2.6957e-16
8.86365e-16
2.61999e-15
6.97019e-15
1.70743e-14
4.10532e-14
1.00339e-13
2.28411e-13
3.84997e-13
4.10036e-13
2.9096e-13
3.72608e-20
5.61414e-20
8.88442e-20
1.53435e-19
3.06383e-19
7.87647e-19
2.83073e-18
1.16169e-17
4.65119e-17
1.74356e-16
5.9137e-16
1.87192e-15
5.4669e-15
1.50105e-14
4.05998e-14
1.05639e-13
2.00625e-13
2.3799e-13
1.16462e-13
)
;

boundaryField
{
    leftWall
    {
        type            zeroGradient;
    }
    rightWall
    {
        type            zeroGradient;
    }
    lowerWall
    {
        type            zeroGradient;
    }
    atmosphere
    {
        type            inletOutlet;
        inletValue      uniform 0;
        value           nonuniform List<scalar> 
46
(
5.32858e-08
4.46022e-08
2.32652e-08
8.8992e-09
0
0
0
0
0
0
0
0
0
0
0
0
0
0
0
0
2.48561e-16
1.17322e-16
2.40674e-17
6.22926e-19
5.52382e-20
2.67787e-20
3.1561e-20
3.72608e-20
5.61414e-20
0
0
0
0
0
0
0
0
0
1.87192e-15
5.46691e-15
1.50105e-14
4.05998e-14
1.05639e-13
2.00625e-13
2.3799e-13
1.16462e-13
)
;
    }
    defaultFaces
    {
        type            empty;
    }
}


// ************************************************************************* //
