/*--------------------------------*- C++ -*----------------------------------*\
| =========                 |                                                 |
| \\      /  F ield         | OpenFOAM: The Open Source CFD Toolbox           |
|  \\    /   O peration     | Version:  2312                                  |
|   \\  /    A nd           | Website:  www.openfoam.com                      |
|    \\/     M anipulation  |                                                 |
\*---------------------------------------------------------------------------*/
FoamFile
{
    version     2.0;
    format      ascii;
    arch        "LSB;label=32;scalar=64";
    class       volScalarField;
    location    "3.6";
    object      alpha.oil;
}
// * * * * * * * * * * * * * * * * * * * * * * * * * * * * * * * * * * * * * //

dimensions      [0 0 0 0 0 0 0];

internalField   nonuniform List<scalar> 
2268
(
7.67535e-10
6.98274e-10
1.70003e-09
1.91595e-09
4.02774e-09
8.57877e-09
1.07986e-08
7.75737e-09
3.71524e-09
1.50845e-09
7.86965e-10
5.07629e-10
3.59499e-10
2.79284e-10
2.30115e-10
2.31723e-10
3.31535e-10
5.48645e-10
5.59908e-10
5.85657e-10
5.60602e-07
5.17872e-05
5.25493e-05
7.84728e-10
6.98385e-10
1.90543e-08
1.42848e-08
3.8594e-08
8.87423e-08
1.36194e-07
9.85498e-08
3.01393e-08
4.73833e-09
2.58915e-09
1.98739e-09
1.53407e-09
1.50104e-09
9.25164e-10
6.08952e-10
5.61658e-10
7.95994e-10
1.09353e-09
5.8411e-10
5.83015e-10
2.64678e-05
4.72296e-05
7.86131e-10
3.38747e-08
5.21368e-08
2.70242e-08
4.91503e-08
3.30766e-07
3.32648e-07
3.19502e-07
5.38452e-08
1.42298e-09
1.70992e-09
1.55411e-09
1.33863e-09
3.63691e-09
9.20451e-10
1.29307e-08
1.11161e-08
4.80703e-09
2.56581e-09
7.96995e-10
5.98537e-08
4.8484e-07
4.73872e-06
3.03999e-05
3.10828e-05
2.6283e-08
-1.47367e-22
-8.33912e-21
-1.09845e-23
1.00008e-23
-2.94775e-23
6.49249e-18
1.41185e-09
3.18134e-09
1.92137e-09
1.30816e-09
1.30822e-09
1.1529e-06
2.21873e-07
6.77508e-10
6.84025e-10
8.3849e-10
6.34307e-10
1.38502e-08
-8.28116e-12
-1.34894e-19
0.00434699
0.00440339
0.00348221
0.0017871
0.000314914
6.70946e-05
0.000169822
0.000241115
9.21062e-05
1.30569e-09
1.30655e-09
1.30567e-09
1.30606e-09
7.39793e-05
2.87989e-05
2.1882e-07
0.000236788
8.02557e-05
0.000200398
4.79076e-05
4.14923e-08
2.83779e-09
-1.54557e-09
0.00723965
0.00723956
0.00723966
0.00521866
0.000917592
0.000156528
0.00049497
0.000513266
0.000483512
0.000218022
0.000211404
0.00121147
0.000969547
0.000619604
2.83714e-05
0.000695074
0.00254194
0.0023867
0.000194396
4.38381e-08
1.10063e-08
5.55583e-10
-3.89506e-10
0.00258079
0.00374033
0.00357893
0.00200319
0.000560153
0.000225237
0.000253735
0.000438077
0.000581202
0.00244197
0.0139076
0.0199315
0.0105137
0.00139026
0.00592466
0.00585606
0.00340091
0.00239009
0.00722822
0.015772
0.0156573
0.00898967
0.00306367
2.2853e-05
2.06894e-05
2.06426e-05
2.05975e-05
5.72644e-05
9.43798e-05
0.000200074
0.000309301
0.000872452
0.00959537
0.0277542
0.0263177
0.023625
0.022969
0.0352051
0.0707601
0.0816132
0.0846996
0.0554056
0.0467634
0.0316596
0.0150156
0.00356612
0.0268052
0.026805
0.026805
0.0268049
0.0271021
0.0268001
0.0268004
0.0268
0.0268002
0.0267999
0.0268003
0.0268
0.0280831
0.0318252
0.0346036
0.0344754
0.0344754
0.0344754
0.0344754
0.0268049
0.0372298
0.0377923
0.0405747
0.0425991
0.0398165
0.0368977
0.0402852
0.0398711
0.0327652
0.0331594
0.0336787
0.0342906
0.0576742
0.117798
0.110504
0.0688512
0.0477578
0.0588081
0.0872142
0.321353
0.348405
0.358201
0.359403
0.343872
0.286149
0.219119
0.227687
0.287313
0.352103
0.366789
0.390246
0.450251
0.487673
0.486653
0.458217
0.460847
0.463434
0.407085
0.41143
0.368221
0.391697
0.419187
0.418934
0.375163
0.176544
0.199695
0.452898
0.55792
0.515139
0.364308
0.279963
0.308608
0.40261
0.515027
0.515027
0.515027
0.35481
0.127811
0.0202713
0.0211299
0.0432044
0.0628811
0.0615266
0.0241134
0.0285404
0.470686
0.55814
0.114167
0.0711453
0.0602989
0.0456
0.0591054
0.105657
0.35037
0.515027
0.127554
0.0170194
0.0131746
0.0116554
0.0116542
0.0126322
0.0173001
0.014166
0.0213084
0.487128
0.443664
0.0687086
0.0689335
0.0493958
0.0404214
0.0405991
0.070536
0.159364
0.208155
0.26013
0.0191145
0.0122286
0.0117141
0.0116536
0.0116531
0.0116536
0.0116532
0.0658833
0.53979
0.240416
0.154823
0.0958775
0.0688441
0.0403918
0.0404623
0.040546
0.0758797
0.081063
0.344141
0.0403751
0.0169525
0.0491163
0.0116518
0.0116524
0.0117239
0.0116533
0.159526
0.540532
0.433769
0.361191
0.181835
0.0403322
0.0403134
0.0404322
0.0403683
0.0558168
0.0605719
3.16617e-05
3.16612e-05
2.7296e-05
2.04923e-05
3.39662e-05
3.79551e-05
1.88752e-05
0.000200025
0.00448458
0.0482907
0.0486475
0.0437021
0.023488
0.0441172
0.12174
0.122311
0.122632
0.112166
0.0256663
0.00625081
0.00570059
0.00120815
0.000611007
2.47305e-05
2.37751e-05
5.08502e-06
-5.48001e-13
-3.41236e-16
4.04732e-09
3.70675e-06
0.000158832
0.000329369
0.0168063
0.0480936
0.0478733
0.0438525
0.00734418
0.000783337
0.00866275
0.00785967
0.00931671
0.00243604
0.00148282
0.00144954
0.0137704
0.127722
4.24458e-21
-7.4783e-22
2.10222e-20
-6.18799e-12
-2.1253e-14
4.77389e-07
4.35557e-05
0.000271397
0.000251811
0.00021931
0.00823835
0.0207647
0.00886031
0.00107346
0.000777886
0.000771342
0.000774754
0.000777642
0.124245
0.292166
0.375692
0.412889
0.481719
0.00399443
0.116977
0.0734225
-2.42964e-19
4.01652e-20
-3.26068e-21
-6.01766e-23
-6.57122e-22
-4.73739e-08
4.22365e-13
-9.28486e-06
-2.5196e-05
-5.94553e-06
0.0137722
0.0638158
0.149956
0.282777
0.420381
0.788276
0.939855
0.961366
0.971646
0.993399
0.314567
0.547193
0.662147
0.305331
0.0617455
0.00658692
0.00296607
0.00369639
0.0143782
0.0611266
0.119963
0.173739
0.329294
0.580569
0.771699
0.936118
0.955419
0.971145
0.988806
0.998195
0.998861
0.998861
0.998598
0.899418
0.954743
0.997245
0.954922
0.743076
0.545681
0.479248
0.48021
0.555837
0.702824
0.799291
0.875507
0.932633
0.954995
0.957814
0.99065
0.997655
0.997767
0.998569
0.998861
0.998861
0.998861
0.996432
0.933581
0.986678
0.999025
0.998629
0.955686
0.945189
0.974433
0.98914
0.989692
0.995719
0.974176
0.931406
0.941513
0.938389
0.923794
0.917833
0.904653
0.886605
0.851082
0.806699
0.774137
0.742771
0.736836
0.959121
0.995754
0.999528
0.999528
0.998919
0.999136
0.999528
0.999511
0.999495
0.999274
0.900374
0.66588
0.403026
0.249346
0.189008
0.158255
0.126639
0.0991133
0.0706653
0.0476708
0.0373375
0.0310735
0.0343364
0.999468
0.999528
0.999528
0.999528
0.999528
0.999528
0.999528
0.998721
0.955859
0.728911
0.320188
0.0599766
0.000630789
-1.59488e-22
-1.66666e-09
-7.72137e-09
2.59777e-22
2.04113e-07
2.97447e-07
1.24141e-07
-1.01121e-20
-2.30258e-11
-3.25577e-14
0.999059
0.998499
0.998812
0.999283
0.999447
0.999455
0.998931
0.990468
0.846318
0.320252
0.000488396
5.49689e-19
4.06967e-14
3.83241e-07
1.05318e-06
1.58139e-06
2.14155e-06
3.73063e-06
3.39064e-06
7.16668e-07
3.84329e-07
2.08346e-07
1.89697e-10
0.985098
0.972059
0.950084
0.92216
0.885739
0.836168
0.758682
0.638005
0.442274
0.0897422
8.92874e-12
2.90612e-16
4.82183e-08
6.2492e-07
9.69958e-07
9.0086e-07
1.20669e-06
5.85975e-06
1.13129e-05
1.11459e-05
9.94166e-07
2.54786e-07
2.37045e-07
0.390954
0.33939
0.271108
0.206968
0.144457
0.0846438
9.30651e-14
1.20888e-13
9.30645e-14
6.63297e-12
4.24906e-06
8.3412e-07
4.99728e-08
1.62581e-07
3.09947e-07
1.53092e-07
1.51215e-07
1.51167e-07
5.20193e-06
1.54727e-05
1.54096e-05
7.03722e-06
8.35087e-06
1.36583e-10
2.93603e-10
1.56442e-08
2.4676e-08
9.90603e-11
2.2252e-11
6.72327e-11
3.01317e-10
6.15127e-07
3.38335e-06
3.2104e-06
1.25845e-07
5.06249e-09
4.61069e-08
4.37408e-07
8.65775e-07
7.75399e-07
3.8123e-07
3.87715e-07
8.97574e-06
1.87406e-05
1.87392e-05
9.3909e-06
1.44109e-08
7.19569e-08
2.33975e-07
3.57281e-07
1.79858e-07
2.78269e-08
1.80359e-09
1.07938e-08
1.85154e-07
1.57092e-06
5.02253e-08
2.73934e-09
1.13843e-11
5.77784e-07
2.04203e-06
1.42266e-06
7.68578e-07
7.9552e-07
1.38136e-05
1.89114e-05
1.85876e-05
1.37084e-05
1.65969e-06
3.77728e-08
1.67314e-07
4.76684e-07
6.52778e-07
6.79543e-07
1.72794e-07
1.40691e-09
1.67509e-09
8.76461e-12
5.74788e-18
5.57262e-12
2.59116e-15
1.17381e-14
1.16418e-05
2.24377e-05
2.15373e-05
1.28533e-05
1.79594e-05
1.90707e-05
1.89291e-05
1.12142e-05
6.96533e-07
4.58184e-08
2.95851e-08
9.3495e-08
3.67217e-07
1.9518e-06
4.24983e-06
3.29405e-06
4.48148e-07
8.42661e-08
1.5535e-12
-1.55343e-12
1.06606e-06
3.38268e-05
7.0784e-05
7.36138e-05
7.35823e-05
6.15304e-05
3.92327e-05
1.14597e-06
2.11112e-06
5.21405e-07
1.66821e-06
7.36207e-07
1.3674e-07
1.86521e-08
1.85762e-08
1.95232e-07
2.71687e-06
4.46169e-06
4.30662e-06
2.85106e-06
9.63387e-08
5.1254e-06
4.72199e-05
6.95873e-05
6.96998e-05
5.82882e-05
3.90649e-05
2.37751e-05
8.07794e-06
2.74632e-06
7.04744e-09
7.04631e-09
7.04613e-09
7.04631e-09
2.94139e-08
3.55696e-08
1.76654e-08
2.33406e-08
1.80733e-07
8.67557e-07
3.35676e-06
3.32165e-06
1.26164e-06
2.6422e-06
3.07262e-05
4.62667e-05
3.58901e-05
2.40204e-05
4.19112e-06
7.29259e-08
8.06302e-09
8.05147e-09
8.04947e-09
8.46499e-09
7.34337e-09
7.11197e-09
7.12664e-09
7.27704e-09
2.54261e-08
1.73782e-08
1.51303e-08
4.61025e-08
1.07515e-07
3.9951e-08
7.46683e-08
1.56623e-06
4.97671e-06
4.96173e-06
2.38863e-06
1.47991e-08
8.74856e-09
8.70973e-09
8.65394e-09
8.59501e-09
8.65733e-09
8.12459e-09
8.21128e-09
7.61955e-09
7.36343e-09
7.0387e-09
5.44527e-09
5.2609e-09
1.7375e-08
7.5907e-09
1.64838e-08
1.62712e-08
2.73553e-08
1.33856e-07
3.26454e-07
3.5446e-07
3.49586e-08
2.15496e-08
2.35946e-08
1.45567e-08
9.96429e-09
8.62134e-09
6.85118e-09
5.57919e-09
4.91371e-09
4.7166e-09
4.69298e-09
4.40649e-09
4.18416e-09
4.49713e-09
4.73089e-09
1.76399e-08
5.51676e-09
1.40076e-08
2.71199e-08
4.38146e-08
5.96221e-08
5.59847e-08
3.35283e-08
3.23143e-08
2.12116e-08
1.47429e-08
9.80912e-09
7.06616e-09
5.41135e-09
4.15185e-09
3.25472e-09
2.73575e-09
2.54527e-09
2.5521e-09
2.75217e-09
2.94309e-09
3.13728e-09
4.25213e-09
1.76679e-08
3.74538e-09
8.97014e-09
1.75451e-08
2.89723e-08
3.85896e-08
3.94614e-08
3.23635e-08
2.82589e-08
1.46109e-08
7.7122e-09
5.35371e-09
3.77231e-09
2.93429e-09
2.28859e-09
1.82968e-09
1.54788e-09
1.4479e-09
1.48501e-09
1.69555e-09
1.89729e-09
2.40846e-09
2.86292e-09
1.60136e-08
2.69321e-09
5.43521e-09
1.00597e-08
1.56673e-08
1.92298e-08
1.91236e-08
1.58578e-08
1.03468e-08
5.20049e-09
2.8407e-09
1.90713e-09
1.49681e-09
1.19407e-09
9.62968e-10
8.31562e-10
7.77726e-10
7.97848e-10
8.95382e-10
1.07467e-09
1.3011e-09
1.46442e-09
2.0001e-09
4.81254e-09
2.2501e-09
3.06874e-09
4.54003e-09
5.94633e-09
6.712e-09
5.85312e-09
4.20917e-09
2.43338e-09
1.26348e-09
7.90906e-10
5.9514e-10
4.68477e-10
3.95414e-10
3.60782e-10
3.5373e-10
3.72866e-10
4.18616e-10
4.97344e-10
6.30214e-10
7.69515e-10
1.04243e-09
1.27226e-09
2.52285e-09
2.2316e-09
2.21414e-09
2.50773e-09
2.52419e-09
2.23874e-09
1.6938e-09
1.14782e-09
7.11701e-10
4.62421e-10
3.26006e-10
2.39712e-10
1.83046e-10
1.52569e-10
1.42979e-10
1.50075e-10
1.69825e-10
2.02466e-10
2.55141e-10
3.41135e-10
4.54178e-10
5.47346e-10
8.07782e-10
2.68491e-09
2.47986e-09
2.11158e-09
1.95171e-09
1.64922e-09
1.3233e-09
1.00682e-09
7.62935e-10
5.77316e-10
4.41286e-10
3.31267e-10
2.26177e-10
1.49194e-10
9.72766e-11
7.05847e-11
6.38063e-11
7.09195e-11
8.83304e-11
1.19128e-10
1.69645e-10
2.17449e-10
3.42168e-10
4.46816e-10
3.13017e-09
2.80394e-09
2.37688e-09
1.99147e-09
1.61049e-09
1.31235e-09
1.07305e-09
8.69753e-10
7.28045e-10
6.12348e-10
4.81892e-10
3.38326e-10
2.10043e-10
1.15708e-10
5.97834e-11
3.46379e-11
2.91395e-11
3.48671e-11
4.96977e-11
7.68717e-11
1.16714e-10
1.61521e-10
2.7262e-10
3.49276e-09
3.04074e-09
2.45365e-09
1.88315e-09
1.47906e-09
1.28972e-09
1.11114e-09
9.14392e-10
8.18599e-10
7.4863e-10
6.53355e-10
4.86947e-10
3.13031e-10
1.70626e-10
7.941e-11
3.30763e-11
1.60085e-11
1.38198e-11
1.9646e-11
3.2476e-11
4.9778e-11
9.61286e-11
1.46796e-10
3.91484e-09
3.18195e-09
2.20905e-09
1.17674e-09
9.63782e-10
1.20067e-09
9.89672e-10
6.77399e-10
7.32508e-10
7.97016e-10
7.77491e-10
6.19098e-10
4.21028e-10
2.43225e-10
1.15234e-10
4.51739e-11
1.54644e-11
7.06364e-12
7.72917e-12
1.32829e-11
2.70026e-11
4.48046e-11
9.14254e-11
4.24706e-09
3.72598e-09
3.58598e-09
1.61569e-09
6.65317e-09
1.59309e-08
4.56905e-09
5.34699e-10
6.40732e-10
8.00153e-10
8.51484e-10
7.12785e-10
5.06671e-10
3.09014e-10
1.55605e-10
6.28702e-11
2.03411e-11
6.28557e-12
3.76518e-12
6.13517e-12
1.17039e-11
3.03218e-11
5.3281e-11
4.62575e-09
7.48459e-09
2.52287e-08
1.3775e-07
4.12603e-07
3.5026e-07
4.40867e-08
5.09112e-10
6.41801e-10
7.71153e-10
8.88629e-10
7.64431e-10
5.53999e-10
3.53682e-10
1.89492e-10
8.14846e-11
2.74234e-11
7.56571e-12
2.57749e-12
3.05543e-12
7.57459e-12
1.57687e-11
3.75397e-11
4.73537e-09
1.26461e-08
4.57358e-08
3.47732e-07
8.70063e-07
7.29648e-07
1.01468e-07
5.16356e-10
8.03173e-10
7.55467e-10
8.95943e-10
7.7924e-10
5.60502e-10
3.6449e-10
2.05061e-10
9.44779e-11
3.39756e-11
9.44265e-12
2.43885e-12
1.63406e-12
3.34108e-12
1.11853e-11
2.27993e-11
4.74122e-09
2.10527e-08
1.71435e-07
7.76136e-07
8.7018e-07
5.60409e-07
5.03538e-10
5.03996e-10
1.30788e-09
7.58446e-10
8.67348e-10
7.49096e-10
5.31284e-10
3.41579e-10
1.95224e-10
9.53212e-11
3.68671e-11
1.10823e-11
2.65289e-12
1.04228e-12
2.09442e-12
5.28119e-12
1.5204e-11
4.74713e-09
3.10744e-08
3.23811e-07
8.7018e-07
8.7007e-07
3.71019e-07
1.20131e-08
8.59742e-09
1.76549e-09
7.72997e-10
7.17465e-10
6.75373e-10
4.70368e-10
2.86146e-10
1.62024e-10
8.13539e-11
3.47243e-11
1.13821e-11
2.83787e-12
7.22032e-13
8.61844e-13
3.38796e-12
8.21902e-12
4.96162e-09
3.77798e-08
3.77549e-07
8.70076e-07
8.62982e-07
1.0107e-07
6.50311e-08
3.24925e-08
2.45319e-09
8.77992e-10
6.19193e-10
5.53329e-10
3.8096e-10
2.25385e-10
1.21659e-10
6.0735e-11
2.71084e-11
9.88253e-12
2.66255e-12
6.12131e-13
4.61423e-13
1.2662e-12
4.45838e-12
5.26923e-09
2.9609e-08
2.79004e-07
6.86094e-07
2.65996e-07
9.6758e-08
1.24188e-07
5.59021e-08
4.86612e-09
1.0945e-09
5.16319e-10
4.21882e-10
2.84512e-10
1.59167e-10
7.88333e-11
3.77195e-11
1.727e-11
6.90462e-12
2.12348e-12
4.8748e-13
2.28552e-13
6.53246e-13
2.0453e-12
6.2212e-09
1.57253e-08
1.14029e-07
1.30624e-07
6.87983e-08
1.49409e-07
1.73974e-07
6.09046e-08
5.90478e-09
1.13734e-09
3.96411e-10
2.82927e-10
1.8713e-10
9.81941e-11
4.41079e-11
1.93029e-11
8.71083e-12
3.71009e-12
1.31735e-12
3.37865e-13
1.00207e-13
1.84601e-13
8.82131e-13
6.96711e-09
1.31694e-08
1.608e-08
3.43623e-08
7.46143e-08
1.77048e-07
1.61799e-07
3.70794e-08
4.84748e-09
9.68044e-10
2.5486e-10
1.61458e-10
1.0713e-10
5.27085e-11
2.09986e-11
8.03307e-12
3.32816e-12
1.44998e-12
5.87567e-13
1.8614e-13
5.06888e-14
7.70361e-14
2.95814e-13
2.20805e-08
1.15319e-08
1.16734e-08
3.16954e-08
1.33337e-07
1.77308e-07
5.14493e-08
7.50739e-09
1.55699e-09
4.09423e-10
1.12344e-10
7.75876e-11
5.16977e-11
2.41884e-11
8.5748e-12
2.75394e-12
9.51925e-13
3.77598e-13
1.75223e-13
7.44513e-14
2.29305e-14
2.07067e-14
8.94314e-14
2.37765e-08
1.15325e-08
1.15319e-08
8.9242e-08
1.45541e-07
8.21968e-08
1.6975e-08
2.34658e-09
3.66542e-10
8.63332e-11
3.1891e-11
2.78222e-11
1.9662e-11
9.10749e-12
3.04381e-12
7.98181e-13
2.0681e-13
6.59369e-14
3.16364e-14
2.05047e-14
7.47054e-15
6.29734e-15
2.5283e-14
1.89916e-08
1.15305e-08
4.69796e-08
1.11624e-07
9.51641e-08
2.73262e-08
5.40646e-09
7.17855e-10
8.94507e-11
1.94139e-11
6.46724e-12
6.47002e-12
5.04648e-12
2.41068e-12
7.53436e-13
1.66772e-13
3.05293e-14
6.58152e-15
3.45764e-15
3.5554e-15
1.93909e-15
1.57329e-15
6.72347e-15
4.54127e-08
4.64048e-08
9.94197e-08
8.83287e-08
3.05005e-08
5.47671e-09
7.76428e-10
6.41214e-11
9.67141e-12
1.94058e-12
4.92744e-13
7.7153e-13
6.90882e-13
3.42718e-13
1.03118e-13
1.91021e-14
2.3715e-15
3.43907e-16
2.35442e-16
4.17719e-16
4.54717e-16
4.32394e-16
1.64989e-15
0.000611033
0.00061104
0.144589
0.333351
0.210439
0.230113
0.340185
0.338538
0.506894
0.5064
0.533783
0.476386
0.992714
0.968829
0.942387
0.968223
0.998587
0.998557
0.998545
0.995497
0.980911
0.979734
0.981551
0.984623
0.752893
0.7376
0.651635
0.588775
0.04088
0.0299355
0.0285491
0.0227363
-9.20444e-13
-2.06272e-12
-3.42067e-21
9.15192e-21
3.98621e-09
1.25892e-08
1.46628e-09
-6.35215e-24
3.44971e-07
5.96343e-07
5.25608e-07
2.15444e-07
4.08397e-06
8.04182e-08
8.26939e-08
3.87787e-08
4.02088e-06
2.35903e-06
9.47802e-07
4.70083e-08
4.26911e-07
8.70807e-07
5.8443e-07
-1.68215e-09
4.69783e-08
1.33945e-07
5.80549e-08
9.46616e-13
4.58368e-08
4.03763e-08
2.60469e-08
9.28746e-13
7.91381e-08
1.63432e-07
1.93624e-07
1.89666e-07
7.92209e-08
1.30574e-07
1.27719e-07
4.85329e-08
5.7463e-09
5.94029e-09
4.73175e-08
4.34606e-08
6.38009e-09
1.37191e-08
2.56068e-08
2.99714e-08
6.0547e-09
8.63687e-09
1.15926e-08
8.12523e-09
3.46077e-09
3.74039e-09
4.12848e-09
5.74238e-09
2.28392e-09
2.60887e-09
3.42377e-09
3.69699e-09
1.54079e-09
1.76175e-09
1.97833e-09
2.21923e-09
9.65336e-10
1.0442e-09
1.27509e-09
1.36793e-09
6.05098e-10
6.86419e-10
7.6124e-10
8.56046e-10
3.48434e-10
3.99481e-10
4.99998e-10
5.47174e-10
2.18387e-10
2.63425e-10
3.0324e-10
3.61138e-10
1.34121e-10
1.65773e-10
2.19811e-10
2.52248e-10
9.18055e-11
1.22267e-10
1.47843e-10
1.85259e-10
6.31105e-11
8.13912e-11
1.14439e-10
1.34129e-10
4.43458e-11
6.14352e-11
7.71634e-11
1.05484e-10
2.76829e-11
3.90625e-11
5.58962e-11
6.58339e-11
1.83491e-11
2.49002e-11
3.44686e-11
4.9622e-11
9.00012e-12
1.3329e-11
2.06836e-11
2.63192e-11
4.88433e-12
7.26127e-12
1.05857e-11
1.58933e-11
2.02465e-12
3.35579e-12
5.38526e-12
7.31007e-12
8.66315e-13
1.34812e-12
2.04657e-12
3.18429e-12
2.68385e-13
4.50025e-13
7.60124e-13
1.11135e-12
7.82145e-14
1.3497e-13
2.18967e-13
3.71522e-13
2.14603e-14
3.82501e-14
6.68111e-14
1.02708e-13
5.58752e-15
9.95449e-15
1.71699e-14
2.49017e-14
0.343931
0.0500237
0.232956
0.518344
0.435778
0.302376
0.162411
0.111484
0.391437
0.430418
0.3781
0.166305
0.0599098
0.040363
0.299694
0.623262
0.752326
0.384212
0.356996
0.2745
0.357121
0.778097
0.958146
0.942811
0.856131
0.507325
0.495797
0.826145
0.71804
0.316322
0.241345
0.532126
0.822106
0.971211
0.987143
0.987138
0.971975
0.969381
0.493361
0.829732
0.969387
0.994043
0.987925
0.84187
0.527427
0.557837
0.870095
0.87927
0.880442
0.828376
0.903142
0.984819
0.976582
0.946041
0.980584
0.99089
0.990896
0.970707
0.980443
0.997886
0.999009
0.989519
0.775658
0.391767
0.375012
0.375192
0.767022
0.974091
0.959526
0.965224
0.994718
0.967877
0.917179
0.910834
0.990355
0.990896
0.996969
0.999012
0.999013
0.999012
0.998038
0.912307
0.763068
0.761243
0.675688
0.794246
0.995407
0.995405
0.997276
0.997313
0.99732
0.985725
0.837444
0.99055
0.990574
0.991266
0.998998
0.999012
0.999013
0.999012
0.997065
0.9972
0.997099
0.987811
0.973638
0.959912
0.995835
0.997313
0.997321
0.997313
0.997108
0.728289
0.985795
0.99056
0.692724
0.849372
0.97547
0.996732
0.9969
0.996951
0.977024
0.952951
0.935021
0.941117
0.955382
0.948655
0.916325
0.835131
0.714854
0.625536
0.544772
0.529014
0.955485
0.0555312
0.127728
0.302463
0.451115
0.454911
0.413432
0.364929
0.326764
0.330092
0.334932
0.292171
0.220181
0.14849
0.0739224
0.0323536
0.00790877
0.0561574
0.0442178
0.245883
2.07386e-20
-1.97361e-16
-4.5715e-19
0.000840612
0.000765686
2.06527e-05
3.40446e-19
1.19601e-19
-3.34135e-20
1.9186e-20
2.07175e-23
-1.03526e-22
2.8961e-22
1.076e-05
2.45852e-08
3.07943e-08
-4.61916e-11
1.63257e-14
1.56719e-14
3.45024e-21
1.4462e-11
1.30789e-11
-1.19358e-14
1.72393e-22
1.00927e-22
-1.7521e-12
-1.55165e-11
-5.17433e-11
-5.25815e-23
1.25375e-05
4.91463e-05
9.29276e-05
0.000140795
0.000102727
1.34146e-05
6.83448e-24
5.07799e-11
6.62424e-11
3.88641e-08
1.47875e-11
2.6201e-10
6.88196e-10
5.17021e-08
2.7839e-05
7.77897e-05
8.01888e-05
4.50191e-05
5.62838e-06
2.9467e-05
8.42284e-05
0.000163062
0.000163358
0.000153675
1.44741e-05
3.64734e-14
3.55111e-10
1.46113e-09
5.50645e-09
1.44008e-08
1.17266e-07
1.99378e-10
1.85861e-10
3.27469e-05
8.59968e-05
8.96657e-05
6.95322e-05
6.22393e-05
0.000111275
9.2212e-05
4.39918e-05
8.6849e-05
4.41047e-05
7.7882e-07
7.61813e-07
5.25966e-11
5.23301e-11
4.81462e-06
1.19179e-10
1.07528e-10
1.53627e-10
2.83649e-07
5.27976e-06
1.47245e-05
2.24843e-05
1.13856e-05
1.20067e-05
8.06533e-06
1.88844e-06
4.03353e-06
0.000135962
5.3124e-06
5.69085e-06
3.49143e-05
7.91797e-05
2.34673e-05
9.498e-06
4.91592e-05
3.5643e-05
6.93813e-06
2.25971e-06
1.47388e-06
1.47382e-06
1.73262e-06
4.31162e-06
6.53826e-06
3.68338e-06
1.90779e-06
7.66096e-06
0.000234987
2.46165e-05
3.21034e-05
0.000235818
0.000235194
0.000231997
2.67668e-05
5.69796e-05
5.66132e-05
5.13389e-05
9.5051e-06
1.46169e-06
5.49623e-06
1.41351e-05
7.88199e-06
1.09736e-05
1.61163e-05
6.25735e-06
8.44757e-07
0.000232753
0.000220294
7.46282e-05
0.000233448
0.000233717
0.00023814
5.35562e-06
3.65189e-05
5.39992e-05
3.26546e-05
3.02887e-06
1.46851e-06
1.70341e-05
2.33619e-05
3.08826e-05
2.8617e-05
1.67667e-05
2.01278e-06
8.82437e-07
9.8019e-05
0.000260158
8.10579e-05
0.000174409
0.000139071
0.00023814
1.91713e-07
1.13299e-06
2.98207e-06
8.43384e-07
1.06166e-07
3.21974e-06
3.54903e-05
3.69935e-05
3.73487e-05
3.73455e-05
1.77134e-05
2.52733e-06
8.42953e-08
3.35463e-05
0.000260231
0.00012431
2.00297e-05
2.00776e-05
0.000146726
2.41847e-07
8.72171e-07
2.90288e-07
1.44859e-07
1.06061e-07
1.53963e-07
3.47491e-05
3.73487e-05
3.73485e-05
3.73487e-05
2.58536e-05
2.3148e-06
8.5824e-08
8.4299e-08
0.000254427
0.000121035
2.09873e-05
2.00813e-05
2.00786e-05
3.99544e-07
1.39531e-06
1.40132e-06
1.01916e-06
1.12398e-06
3.10807e-06
1.31202e-05
2.69064e-05
3.47899e-05
3.29301e-05
1.96488e-05
2.09807e-06
9.5314e-08
8.57923e-08
0.000253144
0.000123841
2.00853e-05
2.00745e-05
6.15249e-05
6.7389e-09
3.68758e-08
1.37451e-07
2.67632e-07
8.38521e-07
9.54754e-07
4.61334e-07
2.06498e-06
4.42038e-06
4.80607e-06
4.4788e-06
1.48329e-06
1.13811e-07
1.46316e-05
0.000155358
4.9296e-05
3.02001e-05
5.49711e-05
0.000111276
6.73783e-09
8.78202e-09
1.28786e-08
1.54173e-08
4.34557e-08
1.14005e-07
1.52044e-07
1.24012e-07
1.09869e-07
1.0228e-07
1.03193e-07
2.36227e-07
1.01093e-07
1.04708e-05
4.08022e-06
4.3751e-08
1.65873e-05
6.77118e-05
0.000108803
6.92764e-09
1.00211e-08
1.8603e-08
3.84694e-08
8.26151e-08
1.52869e-07
1.76681e-07
1.57919e-07
1.34013e-07
1.33969e-07
1.08682e-07
1.03954e-07
1.02526e-07
1.72152e-07
1.43404e-07
4.05447e-08
3.75165e-08
8.82585e-06
7.29616e-06
4.26161e-09
5.84067e-09
9.87764e-09
1.97996e-08
4.41828e-08
1.00966e-07
1.5932e-07
1.64598e-07
1.44527e-07
1.24626e-07
9.77673e-08
6.51499e-08
5.03177e-08
5.10361e-08
5.22657e-08
3.94759e-08
3.73804e-08
3.49158e-08
3.55592e-08
2.38392e-09
2.88297e-09
3.35958e-09
4.07183e-09
6.2884e-09
1.47439e-08
3.8845e-08
6.09406e-08
6.46823e-08
5.62897e-08
4.47902e-08
2.76621e-08
2.17601e-08
5.45944e-08
4.29841e-08
3.99037e-08
2.35493e-07
2.24402e-07
3.49765e-08
1.49201e-09
1.73527e-09
1.94073e-09
2.04803e-09
2.1022e-09
2.38885e-09
3.49931e-09
6.60623e-09
1.13614e-08
1.40456e-08
1.47727e-08
1.55365e-08
1.47246e-08
3.61181e-08
1.31611e-08
1.22664e-07
3.23877e-07
1.5968e-07
3.83299e-08
9.26735e-10
1.1257e-09
1.3157e-09
1.53857e-09
1.84017e-09
2.27485e-09
2.89965e-09
3.71646e-09
4.75133e-09
6.25361e-09
7.68538e-09
1.04299e-08
1.18036e-08
1.42109e-08
6.67131e-09
5.93097e-08
1.60211e-07
5.80937e-08
3.78241e-08
6.17836e-10
7.68849e-10
9.46125e-10
1.1631e-09
1.44711e-09
1.85118e-09
2.39947e-09
3.09603e-09
3.91111e-09
4.79328e-09
5.80969e-09
7.72955e-09
8.99924e-09
6.73908e-09
6.4373e-09
3.37588e-07
3.22204e-07
1.16239e-07
2.42945e-07
4.13772e-10
5.52144e-10
7.10364e-10
9.11012e-10
1.17682e-09
1.52482e-09
2.00274e-09
2.61754e-09
3.36854e-09
4.22086e-09
5.25361e-09
7.01781e-09
7.04799e-09
1.96481e-08
4.1203e-07
7.27075e-07
7.08339e-07
3.42066e-07
3.0843e-06
3.00761e-10
4.21417e-10
5.66808e-10
7.56712e-10
9.93847e-10
1.30771e-09
1.7434e-09
2.30306e-09
3.00231e-09
3.83553e-09
4.85357e-09
6.90012e-09
1.41159e-08
8.03561e-08
3.71379e-07
6.79467e-07
7.09151e-07
3.91294e-07
3.56749e-06
2.26203e-10
3.34487e-10
4.6928e-10
6.39838e-10
8.70214e-10
1.16716e-09
1.57757e-09
2.20898e-09
2.96617e-09
3.81975e-09
4.73101e-09
6.64574e-09
1.72472e-08
1.03732e-07
2.12831e-07
2.36727e-07
2.06531e-07
1.98438e-07
3.5663e-06
1.73148e-10
2.67083e-10
3.85436e-10
5.34633e-10
7.37176e-10
1.04279e-09
1.48105e-09
2.16878e-09
3.17417e-09
4.41722e-09
5.43484e-09
6.13978e-09
1.23574e-08
1.3689e-07
1.83437e-06
3.18009e-06
1.40483e-07
7.03762e-08
1.75335e-06
1.30515e-10
2.0799e-10
2.98588e-10
4.26902e-10
6.07834e-10
8.75417e-10
1.31581e-09
2.0811e-09
3.38192e-09
5.31567e-09
7.31494e-09
7.58306e-09
1.69451e-08
2.88002e-07
5.99585e-06
7.19596e-06
1.61632e-06
6.89697e-08
1.27459e-07
9.59389e-11
1.4599e-10
2.18113e-10
3.17931e-10
4.58092e-10
6.88206e-10
1.08195e-09
1.84014e-09
3.3414e-09
6.20851e-09
1.06517e-08
1.38677e-08
1.56584e-08
1.45591e-07
4.54675e-06
7.19605e-06
7.0651e-06
2.2794e-07
1.04998e-06
6.2183e-11
9.93231e-11
1.49502e-10
2.19528e-10
3.22428e-10
4.90638e-10
7.96978e-10
1.45236e-09
2.87697e-09
6.31914e-09
1.44442e-08
2.80845e-08
3.71856e-08
7.89522e-08
8.868e-07
7.19596e-06
7.19605e-06
6.94231e-06
3.96003e-06
3.92208e-11
6.09007e-11
9.30784e-11
1.38339e-10
2.06653e-10
3.21718e-10
5.38224e-10
9.84515e-10
1.97661e-09
4.70342e-09
1.35518e-08
4.358e-08
8.82693e-08
1.02806e-07
2.26628e-07
1.84079e-06
6.76206e-06
5.11444e-06
1.4652e-06
2.04789e-11
3.38e-11
5.24339e-11
7.92427e-11
1.20923e-10
1.93316e-10
3.31575e-10
6.13581e-10
1.24688e-09
2.90779e-09
8.94636e-09
3.28804e-08
1.06232e-07
1.53383e-07
1.3588e-07
1.94857e-07
6.6352e-07
7.33738e-07
1.36232e-07
9.93555e-12
1.67545e-11
2.65528e-11
4.10847e-11
6.47089e-11
1.06632e-10
1.88446e-10
3.6144e-10
7.40739e-10
1.62253e-09
4.36368e-09
1.54561e-08
6.19781e-08
1.60913e-07
1.78444e-07
9.19451e-08
1.02845e-07
5.87051e-08
8.45285e-08
4.2478e-12
7.37778e-12
1.19985e-11
1.9177e-11
3.12166e-11
5.35615e-11
9.92078e-11
1.97562e-10
4.12482e-10
8.94648e-10
2.05888e-09
6.06354e-09
2.48572e-08
9.96692e-08
2.01815e-07
1.68536e-07
4.28773e-08
3.93839e-08
1.78103e-07
1.61008e-12
2.8491e-12
4.78472e-12
8.00212e-12
1.3666e-11
2.43713e-11
4.72708e-11
9.77481e-11
2.15547e-10
4.79745e-10
1.04669e-09
2.42825e-09
7.94647e-09
3.67784e-08
1.57742e-07
2.23391e-07
1.58251e-07
8.75814e-08
2.17093e-07
5.16862e-13
9.29147e-13
1.63198e-12
2.9009e-12
5.29099e-12
1.00452e-11
2.01957e-11
4.40643e-11
1.03311e-10
2.47314e-10
5.89822e-10
1.42804e-09
3.80039e-09
1.47466e-08
7.01513e-08
1.99881e-07
2.35711e-07
2.335e-07
1.75924e-07
1.41515e-13
2.62143e-13
4.78861e-13
8.99408e-13
1.74986e-12
3.49433e-12
7.23564e-12
1.61178e-11
3.86811e-11
9.75231e-11
2.47384e-10
6.19962e-10
1.66132e-09
5.56253e-09
2.56243e-08
1.03416e-07
2.35687e-07
2.36964e-07
4.20355e-08
3.32376e-14
6.02308e-14
1.11066e-13
2.12829e-13
4.20258e-13
8.39522e-13
1.76976e-12
3.84639e-12
8.80694e-12
2.21435e-11
5.82959e-11
1.56736e-10
4.16811e-10
1.24281e-09
5.14372e-09
2.56305e-08
7.27578e-08
1.03699e-07
4.36123e-09
)
;

boundaryField
{
    leftWall
    {
        type            zeroGradient;
    }
    rightWall
    {
        type            zeroGradient;
    }
    lowerWall
    {
        type            zeroGradient;
    }
    atmosphere
    {
        type            inletOutlet;
        inletValue      uniform 0;
        value           nonuniform List<scalar> 
46
(
4.54127e-08
4.64048e-08
9.94197e-08
8.83287e-08
0
0
0
0
0
0
0
0
0
0
0
0
0
0
0
0
4.54717e-16
4.32394e-16
1.64989e-15
5.58752e-15
9.95448e-15
1.71699e-14
2.49017e-14
3.32376e-14
6.02308e-14
0
0
0
0
0
0
0
0
5.82959e-11
1.56736e-10
4.16811e-10
1.24281e-09
5.14372e-09
2.56305e-08
7.27578e-08
1.03699e-07
4.36123e-09
)
;
    }
    defaultFaces
    {
        type            empty;
    }
}


// ************************************************************************* //
