/*--------------------------------*- C++ -*----------------------------------*\
| =========                 |                                                 |
| \\      /  F ield         | OpenFOAM: The Open Source CFD Toolbox           |
|  \\    /   O peration     | Version:  2312                                  |
|   \\  /    A nd           | Website:  www.openfoam.com                      |
|    \\/     M anipulation  |                                                 |
\*---------------------------------------------------------------------------*/
FoamFile
{
    version     2.0;
    format      ascii;
    arch        "LSB;label=32;scalar=64";
    class       volScalarField;
    location    "3.6";
    object      alpha.water;
}
// * * * * * * * * * * * * * * * * * * * * * * * * * * * * * * * * * * * * * //

dimensions      [0 0 0 0 0 0 0];

internalField   nonuniform List<scalar> 
2268
(
3.78894e-07
2.81266e-07
6.35806e-08
1.34566e-08
4.17118e-09
8.26911e-10
2.46021e-10
1.6905e-10
1.13845e-10
7.96979e-11
5.91979e-11
4.86646e-11
4.53822e-11
4.56835e-11
4.96711e-11
5.78778e-11
7.6462e-11
1.08375e-10
1.49525e-10
2.62975e-10
4.79602e-10
1.01781e-09
1.31728e-09
3.61211e-07
2.57254e-07
6.78267e-08
1.3691e-08
1.79633e-09
2.92176e-10
2.47937e-10
1.98093e-10
1.47614e-10
1.15892e-10
1.02026e-10
8.88812e-11
7.7825e-11
7.26878e-11
7.44008e-11
9.30767e-11
1.16233e-10
1.58371e-10
2.39168e-10
4.4064e-10
7.52105e-10
1.63166e-09
1.68146e-09
8.16116e-08
2.40641e-08
1.83631e-08
6.07155e-09
1.09166e-09
1.85339e-10
1.83889e-10
1.6427e-10
1.6689e-10
1.68149e-10
1.95306e-10
1.84037e-10
1.55576e-10
1.38537e-10
1.30356e-10
1.39837e-10
1.85385e-10
2.33837e-10
3.23679e-10
4.74622e-10
1.07042e-09
1.90916e-09
1.83563e-09
-1.05894e-21
-4.55621e-12
5.12771e-22
1.70124e-21
-3.76422e-22
1.62638e-21
-1.28859e-21
3.69995e-21
-1.00065e-21
3.23629e-20
1.62826e-10
1.94839e-10
1.73327e-10
1.27525e-10
1.04069e-10
1.04378e-10
1.31302e-10
1.56026e-10
1.98824e-10
2.98753e-10
7.01715e-10
1.47062e-09
1.23483e-09
0.0336983
0.0357019
0.0386257
0.0407249
0.0392026
0.0324926
0.0230309
0.0126721
0.00399955
5.90381e-05
7.1658e-08
-1.69927e-17
-1.77516e-14
4.80824e-21
-5.56211e-21
1.77489e-21
-1.90168e-30
2.03165e-11
4.04124e-11
7.05326e-11
2.37806e-10
6.10392e-10
4.72032e-10
0.690947
0.697035
0.706593
0.712646
0.70906
0.688855
0.653587
0.599309
0.521163
0.416202
0.314185
0.228813
0.157101
0.0963494
0.0480185
0.0155912
0.000761794
3.09022e-20
1.46318e-20
1.37279e-20
1.14374e-11
5.94366e-11
3.10791e-11
0.996718
0.994936
0.995095
0.996671
0.998694
0.999426
0.999599
0.999561
0.99941
0.997499
0.967483
0.915658
0.865032
0.797622
0.701224
0.566059
0.421579
0.271594
0.120078
0.0224107
3.11948e-13
4.42952e-23
3.11948e-13
0.999606
0.999425
0.999049
0.999589
0.999647
0.999646
0.999646
0.999645
0.999088
0.990325
0.972089
0.973321
0.97337
0.973264
0.960732
0.92136
0.876925
0.798115
0.73524
0.626015
0.47031
0.317903
0.214929
0.013871
0.0142953
0.0143102
0.00724238
0.00610393
0.0110387
0.014323
0.0164476
0.0164237
0.0152679
0.0148715
0.0143323
0.0128644
0.00968858
0.00685609
0.00450222
0.0044684
0.00629531
0.00632981
0.0201037
0.00687414
0.00558693
0.00532741
0.00507046
0.00485192
0.004758
0.004388
0.00436632
0.00434353
0.0035329
0.00277204
0.00217778
0.00206897
0.00207219
0.00209998
0.00277716
0.00294164
0.00283714
0.334564
0.0749609
0.061065
0.0830723
0.1247
0.129293
0.125024
0.129698
0.078888
0.0169792
0.00206777
0.00206003
0.00205847
0.00206132
0.00206894
0.00207208
0.00207955
0.00208753
0.00268614
0.526035
0.524679
0.597136
0.59771
0.572455
0.57004
0.608395
0.781386
0.709995
0.330947
0.0946768
0.13417
0.368796
0.561998
0.529173
0.402622
0.265402
0.240228
0.237969
0.640757
0.865918
0.969258
0.969258
0.950193
0.932288
0.933653
0.96888
0.965281
0.512958
0.385476
0.845793
0.897068
0.905924
0.90623
0.89627
0.876634
0.638403
0.473744
0.866945
0.969257
0.969258
0.969259
0.968584
0.968938
0.968919
0.968898
0.959903
0.470339
0.512919
0.900783
0.906001
0.90607
0.906112
0.906032
0.905982
0.829405
0.780608
0.733233
0.969258
0.96926
0.96926
0.96926
0.968958
0.968933
0.968225
0.850974
0.435967
0.716172
0.828048
0.887001
0.879692
0.906011
0.905967
0.905925
0.905874
0.905859
0.649791
0.955235
0.969257
0.910886
0.942342
0.942879
0.96891
0.93982
0.725101
0.437625
0.53764
0.616191
0.783017
0.873328
0.905904
0.905919
0.90574
0.905859
0.905863
0.999606
0.999606
0.999606
0.999593
0.999614
0.999637
0.999632
0.999645
0.995428
0.951093
0.950113
0.954589
0.970624
0.942999
0.853924
0.853489
0.853707
0.87681
0.970732
0.990155
0.986647
0.97535
0.954963
0.999572
0.998724
0.998317
0.998848
0.999644
0.999644
0.999645
0.999645
0.999645
0.982954
0.950476
0.950419
0.954801
0.985519
0.983272
0.981119
0.987532
0.987513
0.991218
0.991194
0.977639
0.949997
0.828941
0.999397
0.997454
0.992184
0.999589
0.999643
0.999594
0.999633
0.999573
0.999644
0.999193
0.988234
0.975228
0.985521
0.985522
0.984517
0.981172
0.979682
0.978078
0.857367
0.668835
0.577903
0.542299
0.508927
0.971429
0.851914
0.894715
0.969073
0.97494
0.978679
0.973547
0.959578
0.978124
0.997688
0.993365
0.980099
0.966264
0.937846
0.863549
0.792519
0.679228
0.545351
0.175582
0.0370551
0.0143073
0.0132001
0.00292977
0.619115
0.411561
0.311493
0.620043
0.865506
0.921265
0.926552
0.920701
0.921496
0.89528
0.821602
0.735138
0.577934
0.322578
0.132009
0.0215541
0.0360307
0.0126939
4.45726e-05
3.59449e-05
0.000246569
0.000908214
0.00137098
0.0342172
0.00564234
3.51532e-05
0.0111033
0.184034
0.382076
0.448296
0.444234
0.368309
0.223141
0.124432
0.0393451
1.60139e-06
1.56999e-06
1.60158e-06
1.57497e-06
0.000266957
7.84229e-05
7.58934e-05
0.000306503
0.000473093
0.000785338
0.00351716
6.6713e-05
5.06436e-05
3.4689e-05
1.47987e-09
-4.71269e-27
-8.90431e-15
-3.11472e-08
3.46342e-21
1.84524e-08
1.30345e-12
4.25232e-07
8.72274e-07
0.000951937
0.0028523
0.00254205
0.00138331
0.00107771
0.00121186
0.00187908
0.00267352
0.00187433
0.00376462
0.0185009
0.000300924
0.000123099
1.66059e-05
2.51966e-06
-3.56798e-24
9.82776e-24
1.8703e-08
3.20672e-06
4.64787e-06
0.000231341
0.000652027
0.00547956
0.0123587
0.0111765
0.00759336
0.00351356
0.00260143
0.00242387
0.00265275
0.00330428
0.0037254
0.00410113
0.00871243
0.000128472
0.00015083
0.000177902
0.000160124
7.79418e-05
3.4159e-05
1.26432e-05
0.000891038
0.00530797
0.00751908
0.00259199
0.0123392
0.0123704
0.00535783
0.000656061
0.00025514
1.34851e-07
1.22653e-07
2.22223e-07
4.88744e-07
1.60751e-05
0.000149758
2.76475e-05
0.000128481
0.000818793
0.000797661
0.000483809
0.000319168
0.000290022
0.000748918
0.00146792
0.00341973
0.00773498
0.00755298
0.00594938
0.00260547
3.54458e-05
4.05695e-07
1.89177e-07
1.65226e-07
3.58145e-07
2.06477e-06
2.86471e-06
8.36289e-07
8.49724e-07
8.78584e-07
0.00222019
0.0048978
0.00780312
0.0109413
0.011882
0.012077
0.0164793
0.0175236
0.0167918
0.00848574
0.00766769
0.00438569
3.43846e-06
4.04092e-07
6.88451e-07
9.20196e-07
6.33334e-07
5.76265e-07
4.26211e-06
5.42669e-06
4.45206e-06
8.25538e-07
1.01177e-06
0.00424084
0.00404446
0.00618736
0.0125457
0.016742
0.0164089
0.016811
0.0166679
0.00677939
0.00158159
0.00357861
0.00154378
1.40226e-06
4.05193e-07
5.17768e-07
1.49234e-06
1.49234e-06
1.44333e-06
1.47828e-06
2.86741e-06
6.71307e-06
8.57661e-06
3.38382e-06
0.000151832
5.54555e-08
4.41072e-08
1.52483e-08
1.08171e-09
-7.52781e-10
-3.4321e-09
-8.22882e-09
7.20724e-25
8.3263e-22
-7.45167e-19
-1.68168e-09
4.77814e-07
5.36597e-07
2.00974e-07
2.01815e-07
3.85507e-07
8.40053e-07
8.52764e-07
1.06067e-05
2.68167e-05
1.31331e-05
7.25887e-07
9.79945e-08
2.49749e-07
3.97259e-07
1.61571e-07
3.16035e-08
5.69145e-08
3.28038e-07
1.28363e-06
1.22396e-06
4.32663e-12
3.2268e-13
1.97666e-07
5.52512e-07
5.70584e-07
2.10393e-07
1.98083e-07
2.45918e-07
2.77939e-07
1.4572e-05
2.68167e-05
2.68167e-05
2.2631e-05
1.90247e-06
1.223e-07
5.36241e-07
7.1773e-07
4.04529e-07
6.41985e-08
6.23502e-08
2.55926e-07
3.38439e-07
1.44444e-07
7.77969e-08
2.06718e-07
3.35779e-07
1.33194e-07
1.31681e-07
1.33177e-07
1.49005e-06
6.4863e-06
2.50628e-05
2.75861e-05
2.64066e-05
1.7481e-05
2.55007e-06
1.86413e-07
1.12866e-07
4.53909e-07
7.18028e-07
6.26719e-07
9.61206e-08
2.14698e-07
3.43017e-07
3.38813e-07
9.83837e-08
8.30619e-08
9.1729e-08
1.0308e-07
6.1014e-06
1.79394e-05
1.94289e-05
3.16602e-05
3.35605e-05
2.83372e-05
3.98616e-06
5.599e-07
6.94119e-08
7.51437e-10
1.10981e-08
3.76819e-08
8.35585e-08
1.86863e-07
9.06936e-08
1.52546e-07
1.35876e-07
7.20349e-08
7.32677e-08
6.45698e-07
8.71085e-06
1.3153e-05
1.30531e-05
1.11939e-05
1.87778e-05
2.15585e-05
1.3159e-05
3.32483e-06
1.20935e-06
7.68202e-10
7.04559e-10
6.82644e-10
6.82856e-10
4.144e-10
7.95398e-09
2.63527e-09
2.61223e-09
2.70658e-09
4.42905e-08
7.72905e-08
6.32165e-08
7.20746e-07
8.3813e-06
9.46193e-06
9.21984e-06
4.77261e-06
1.25517e-06
2.38441e-06
3.80776e-06
1.80213e-09
1.79208e-09
1.78095e-09
1.76981e-09
1.57598e-09
1.17892e-09
7.91092e-10
3.39334e-10
1.01154e-08
4.54376e-09
2.70581e-09
3.33543e-09
4.28702e-09
6.51671e-09
6.7992e-08
1.54172e-06
2.61566e-06
1.78077e-06
1.17921e-07
1.35444e-09
1.34688e-09
1.33936e-09
1.33199e-09
2.28025e-09
2.41362e-09
2.34513e-09
1.99837e-09
1.4005e-09
9.40226e-10
6.11849e-10
5.35441e-10
1.03064e-08
4.44402e-09
2.70973e-09
3.45096e-09
9.76382e-09
4.53111e-08
1.39519e-07
1.41311e-07
3.36042e-08
1.66404e-08
5.76488e-09
3.53701e-09
2.49449e-09
1.77152e-09
1.32456e-09
1.34479e-09
1.30343e-09
1.21844e-09
1.08132e-09
8.50444e-10
5.81023e-10
4.17797e-10
4.12766e-10
1.20027e-08
3.72254e-09
2.12553e-09
2.78784e-09
5.48582e-09
1.03537e-08
1.15719e-08
4.60465e-09
2.37079e-09
2.12871e-09
1.85423e-09
1.40202e-09
1.12867e-09
8.49396e-10
6.82322e-10
6.18567e-10
6.09619e-10
6.08729e-10
5.63264e-10
4.74044e-10
3.12903e-10
2.06426e-10
2.9106e-10
1.32442e-08
2.88203e-09
1.41074e-09
1.35667e-09
1.87389e-09
2.73671e-09
2.88088e-09
1.08171e-09
8.16657e-10
6.38162e-10
5.56822e-10
4.81183e-10
3.82061e-10
3.20421e-10
2.86047e-10
2.76407e-10
2.82546e-10
2.75486e-10
2.5329e-10
2.18229e-10
1.50206e-10
1.2936e-10
1.53834e-10
1.77774e-08
2.09533e-09
9.81894e-10
7.06202e-10
7.3567e-10
8.0939e-10
6.78318e-10
3.97447e-10
2.88889e-10
2.21154e-10
1.79919e-10
1.46749e-10
1.27149e-10
1.163e-10
1.10877e-10
1.10721e-10
1.12993e-10
1.10592e-10
1.05565e-10
9.32216e-11
7.3906e-11
6.25882e-11
8.81199e-11
3.25209e-08
1.44694e-09
7.83543e-10
3.80486e-10
2.92685e-10
2.45589e-10
1.89285e-10
1.32945e-10
9.95102e-11
7.72713e-11
6.12375e-11
5.0298e-11
4.35429e-11
4.00817e-11
3.8833e-11
3.88449e-11
3.89375e-11
3.85601e-11
3.73007e-11
3.46756e-11
3.15742e-11
3.53799e-11
4.55602e-11
4.01161e-08
8.69707e-10
6.14117e-10
2.78472e-10
1.79431e-10
1.41696e-10
1.07154e-10
8.22099e-11
6.19683e-11
4.64573e-11
3.46975e-11
2.56364e-11
1.94932e-11
1.54389e-11
1.3404e-11
1.24522e-11
1.21818e-11
1.21476e-11
1.2164e-11
1.2485e-11
1.34015e-11
1.4591e-11
2.38851e-11
4.12611e-08
7.42964e-10
4.46378e-10
2.58088e-10
1.85345e-10
1.5595e-10
1.39246e-10
1.13913e-10
8.68764e-11
6.54662e-11
4.81312e-11
3.22777e-11
2.00906e-11
1.18813e-11
7.05414e-12
4.79314e-12
3.74492e-12
3.53478e-12
3.68417e-12
4.17331e-12
4.68845e-12
7.30812e-12
1.05116e-11
4.77832e-08
6.60416e-10
2.87008e-10
2.59526e-10
2.33061e-10
2.26249e-10
2.04522e-10
1.69667e-10
1.32328e-10
1.07638e-10
8.09935e-11
5.4708e-11
3.28072e-11
1.74324e-11
8.31378e-12
3.65949e-12
1.76879e-12
1.10597e-12
1.07039e-12
1.34337e-12
1.87443e-12
2.56388e-12
5.00456e-12
5.35988e-08
1.41606e-09
2.48905e-10
3.17231e-10
3.30183e-10
3.25292e-10
2.97941e-10
2.44539e-10
1.89201e-10
1.64387e-10
1.28455e-10
8.8767e-11
5.39139e-11
2.82851e-11
1.29707e-11
5.15562e-12
1.81959e-12
6.376e-13
3.54955e-13
3.99821e-13
5.53094e-13
1.13782e-12
1.89337e-12
6.92785e-08
2.91523e-09
2.38703e-10
3.75974e-10
4.07758e-10
4.05746e-10
4.02847e-10
4.04078e-10
3.04395e-10
2.28342e-10
1.79947e-10
1.27578e-10
7.9803e-11
4.32894e-11
2.01704e-11
8.0871e-12
2.70511e-12
8.21111e-13
2.01138e-13
1.26435e-13
1.98253e-13
3.26882e-13
7.57401e-13
7.6422e-08
5.5275e-09
2.15723e-10
3.38599e-10
3.35234e-10
3.66951e-10
5.21629e-10
7.19126e-10
6.71943e-10
3.2009e-10
2.30597e-10
1.65609e-10
1.06612e-10
5.92878e-11
2.87798e-11
1.19047e-11
4.06645e-12
1.15972e-12
2.81423e-13
6.16375e-14
5.05871e-14
1.32025e-13
2.44094e-13
9.69078e-08
7.08513e-09
2.02012e-10
2.38852e-10
3.24948e-10
9.65868e-10
3.31917e-09
2.57885e-09
2.06367e-09
6.00372e-10
2.86748e-10
1.95867e-10
1.29157e-10
7.39013e-11
3.72417e-11
1.62015e-11
5.83504e-12
1.70853e-12
4.13316e-13
6.06459e-14
2.0799e-14
3.25844e-14
8.85637e-14
1.04209e-07
9.20766e-09
2.02161e-10
6.44777e-10
7.45695e-09
3.35276e-08
6.29826e-08
2.88395e-08
5.61084e-09
1.3016e-09
3.77406e-10
2.13668e-10
1.41469e-10
8.245e-11
4.30557e-11
1.98482e-11
7.617e-12
2.33465e-12
5.65655e-13
1.00039e-13
1.2855e-14
1.06203e-14
2.47197e-14
1.28848e-07
1.22266e-08
1.24289e-09
2.10394e-08
1.41872e-07
3.82252e-07
7.89443e-07
2.85575e-07
9.89059e-09
2.55706e-09
5.53534e-10
2.27112e-10
1.40431e-10
8.2278e-11
4.36022e-11
2.11442e-11
8.741e-12
2.94568e-12
7.59026e-13
1.53155e-13
1.51547e-14
2.88277e-15
7.24297e-15
1.35197e-07
1.62098e-08
2.1081e-10
1.59622e-08
2.79032e-07
8.12647e-07
1.40926e-06
1.2271e-06
8.48893e-09
5.2092e-09
8.52342e-10
2.30811e-10
1.27705e-10
7.27295e-11
3.8826e-11
1.93205e-11
8.72236e-12
3.21231e-12
9.10822e-13
1.94728e-13
2.44874e-14
1.62985e-15
1.78465e-15
1.657e-07
4.5323e-08
2.08599e-10
1.63354e-08
1.29594e-07
6.69478e-07
1.40818e-06
1.17335e-06
3.2869e-08
5.77834e-09
9.20164e-10
2.13887e-10
1.04616e-10
5.88663e-11
3.07108e-11
1.53733e-11
7.30527e-12
2.99323e-12
9.33631e-13
2.09875e-13
3.403e-14
1.53418e-15
4.35659e-16
1.72211e-07
8.67585e-08
2.1081e-10
3.65779e-09
1.54918e-08
1.81272e-07
1.27451e-06
1.53763e-07
2.913e-08
4.41952e-09
8.53764e-10
1.68702e-10
7.73824e-11
4.21138e-11
2.08529e-11
1.02244e-11
5.03463e-12
2.27214e-12
8.11027e-13
2.04227e-13
3.52039e-14
2.15111e-15
1.56468e-16
1.72229e-07
1.58587e-07
4.56563e-08
3.67661e-09
2.25444e-09
2.82521e-08
1.53768e-07
4.46003e-08
1.41983e-08
2.69556e-09
5.50754e-10
1.05506e-10
4.95354e-11
2.60737e-11
1.213e-11
5.60635e-12
2.76428e-12
1.33689e-12
5.47866e-13
1.58842e-13
3.09231e-14
2.43682e-15
8.69126e-17
1.52418e-07
1.68789e-07
8.88187e-08
1.30357e-08
1.55635e-09
2.50863e-08
2.82174e-10
2.84272e-10
8.21061e-10
9.86935e-10
2.32794e-10
5.2563e-11
2.77048e-11
1.39822e-11
5.94997e-12
2.48629e-12
1.15333e-12
5.74182e-13
2.65489e-13
9.38993e-14
2.07474e-14
2.41577e-15
8.37287e-17
9.68383e-08
1.66099e-07
6.30779e-08
1.5178e-08
1.55448e-09
2.44108e-09
1.58219e-09
5.82044e-10
2.02896e-10
9.28163e-11
3.71573e-11
2.08254e-11
1.31752e-11
6.40958e-12
2.47263e-12
8.9301e-13
3.55487e-13
1.63709e-13
8.56371e-14
3.94515e-14
1.13115e-14
1.53427e-15
8.00483e-17
3.56348e-08
8.00601e-08
4.55642e-08
7.34916e-09
2.93687e-09
3.01766e-09
2.23207e-09
9.46159e-10
2.85425e-10
7.0075e-11
1.61605e-11
7.95973e-12
5.07438e-12
2.42277e-12
8.82987e-13
2.64744e-13
8.1363e-14
3.08236e-14
1.643e-14
1.118e-14
3.95347e-15
7.69081e-16
6.51706e-17
1.49959e-08
3.09243e-08
1.39727e-08
7.46841e-09
5.68124e-09
3.89594e-09
1.79289e-09
5.29387e-10
1.05641e-10
1.66425e-11
3.30333e-12
1.9931e-12
1.35298e-12
6.54686e-13
2.21821e-13
5.61846e-14
1.23417e-14
3.22999e-15
1.86821e-15
1.97005e-15
1.05406e-15
3.32945e-16
4.6004e-17
5.17888e-08
4.41352e-08
2.30356e-08
8.89964e-09
4.8895e-09
2.05676e-09
5.8122e-10
8.5483e-11
7.2443e-12
4.05873e-13
2.60491e-13
2.7028e-13
2.00809e-13
9.89845e-14
3.23453e-14
6.97757e-15
1.06195e-15
1.82631e-16
1.28973e-16
2.33236e-16
2.49484e-16
1.17941e-16
2.40587e-17
0.972501
0.950193
0.798861
0.626884
0.735372
0.714158
0.603164
0.629055
0.467492
0.446198
0.412559
0.476785
0.00325601
0.0128132
0.0289181
0.00320271
0.00132073
0.000870544
0.000219494
0.000182782
0.0190368
0.0201812
0.0183666
0.0106121
0.0201812
0.0201804
0.0201804
0.0201798
0.0182626
0.0201807
0.0159076
0.0164769
0.00205936
0.00385845
0.00136695
0.00125105
1.57266e-06
1.52172e-06
3.58296e-07
3.43828e-07
3.41557e-06
6.2215e-06
5.90856e-06
5.31777e-06
4.50333e-07
2.35657e-06
2.39136e-06
2.76618e-06
2.04194e-07
4.3853e-07
3.1461e-07
2.47622e-07
1.19345e-07
1.03276e-07
6.08276e-08
6.05025e-08
1.50458e-07
1.85406e-07
1.80867e-07
7.75117e-08
2.32532e-08
4.66083e-08
6.10761e-08
3.10685e-08
1.40001e-09
1.60566e-09
2.24007e-08
2.22088e-08
2.44296e-09
9.30734e-10
1.90602e-08
4.27401e-08
6.02816e-10
9.36188e-10
2.64828e-09
3.52967e-09
6.51236e-10
1.42303e-09
2.98336e-09
5.07645e-09
5.36339e-10
9.52919e-10
1.85008e-09
2.89574e-09
2.44618e-10
4.00247e-10
6.09506e-10
8.9288e-10
1.24508e-10
1.71779e-10
2.59978e-10
3.09503e-10
6.50659e-11
8.66795e-11
1.11957e-10
1.40415e-10
3.31701e-11
4.09674e-11
5.90064e-11
7.17382e-11
1.66729e-11
2.15506e-11
2.74565e-11
3.54485e-11
7.13033e-12
8.96984e-12
1.33622e-11
1.64064e-11
3.11723e-12
4.04159e-12
5.10417e-12
6.9281e-12
1.15067e-12
1.48366e-12
2.24735e-12
2.76413e-12
4.41569e-13
6.01528e-13
7.54941e-13
1.02618e-12
1.47473e-13
1.9121e-13
2.85814e-13
3.3976e-13
5.02456e-14
6.88642e-14
8.74316e-14
1.24857e-13
1.37648e-14
1.95821e-14
2.86873e-14
3.347e-14
4.30124e-15
5.74788e-15
7.97514e-15
1.15181e-14
9.10614e-16
1.39295e-15
2.22352e-15
2.82174e-15
2.35744e-16
3.64692e-16
5.41111e-16
8.08497e-16
4.84461e-17
8.32662e-17
1.40644e-16
1.86173e-16
1.09701e-17
1.72796e-17
2.67524e-17
4.15662e-17
2.33009e-18
3.03684e-18
5.29227e-18
7.58387e-18
8.00697e-19
5.6259e-19
8.04972e-19
1.39957e-18
6.1886e-19
1.40268e-19
1.47975e-19
2.23412e-19
6.1687e-19
5.52236e-20
2.72937e-20
3.21891e-20
0.649116
0.94375
0.740424
0.409911
0.483393
0.618362
0.758605
0.780408
0.483151
0.496908
0.568702
0.767858
0.834707
0.855613
0.59915
0.34444
0.228784
0.575106
0.604786
0.71057
0.606399
0.183244
0.000402039
0.00125731
0.0624271
0.331621
0.356452
0.121439
0.231538
0.621225
0.651597
0.360851
0.0979554
0.0129745
0.00273
0.00212157
0.0131012
0.0156193
0.456902
0.11934
7.31299e-21
-1.66785e-22
-7.67985e-21
0.0305319
0.284826
0.329668
0.0972347
0.0854876
0.0424596
0.0645997
0.0155728
0.000248227
0.00214022
0.0028225
0.00287721
0.00245559
0.00246759
1.15398e-10
-4.7239e-09
-1.47578e-22
-1.45074e-21
-4.47116e-20
0.0666506
0.421448
0.438452
0.438234
0.13683
0.000176516
0.000176523
0.00017676
0.000247105
0.00142784
0.00207122
0.00513403
0.00511705
0.00478871
1.17468e-05
1.84494e-05
0.000148575
0.000289546
-5.4684e-07
0.0354506
0.126515
0.0878307
0.137755
0.0763587
0.000206004
0.000176516
0.000176523
0.000198491
0.000227746
0.00013019
0.0001325
0.00333873
0.00553928
0.0031603
2.46524e-05
0.000551778
0.000705284
0.000639776
0.0026128
0.00139195
0.00105376
0.00145661
0.012499
0.01619
0.00225303
0.000482159
0.000490701
0.000173484
0.000175939
0.000715991
0.000203248
0.0026529
0.0189656
0.00163713
0.00245225
0.00298334
0.00270713
0.00205542
0.00139954
0.00104052
0.000858021
0.00143959
0.004676
0.00590787
0.00293598
0.00119671
0.000320158
0.000902757
0.00201851
0.000165493
1.53781e-05
0.0180615
0.011925
0.00415882
0.00475789
0.0047579
0.00406996
0.00310953
0.00228301
0.00117372
0.000745433
0.000894579
0.00172132
0.00175536
0.00118196
0.00050794
0.000999723
0.00169894
0.000674319
1.53968e-05
0.00333963
0.00406389
0.00135738
0.00449154
0.00461273
0.0020906
0.00139937
0.000987732
0.000561698
0.000329888
0.000138994
2.5024e-05
4.70331e-09
3.58419e-05
5.66895e-05
7.32089e-07
7.35796e-07
6.37777e-05
7.18801e-05
3.58349e-07
5.7106e-07
0.00013686
0.000894648
0.000660941
3.96399e-05
8.24872e-06
7.80151e-06
8.25485e-06
1.03055e-05
1.44621e-05
5.1203e-06
7.7855e-09
6.35877e-09
6.74539e-08
7.72327e-06
4.22874e-06
4.64326e-08
3.02754e-05
1.09853e-06
7.05088e-07
1.04765e-06
1.16427e-06
1.19252e-06
3.12262e-05
7.0679e-05
6.29055e-05
2.4134e-05
1.56127e-05
1.50668e-05
7.26492e-06
4.11393e-06
3.5043e-06
1.0859e-05
2.07703e-05
1.82407e-05
4.64326e-08
4.64326e-08
1.16543e-05
1.78096e-05
6.4306e-06
1.1488e-06
1.38169e-06
5.26499e-05
7.48174e-05
7.48835e-05
3.58514e-05
1.81272e-05
1.62385e-05
1.28161e-05
1.04406e-05
1.51256e-05
8.09679e-06
1.64534e-05
1.06059e-05
4.64326e-08
4.64326e-08
3.35241e-06
1.94304e-05
2.01745e-05
1.90356e-05
1.0892e-05
1.38689e-05
1.8379e-05
1.4206e-05
7.48158e-06
5.0301e-06
1.45367e-06
6.0236e-08
1.03719e-05
2.89479e-05
2.02037e-06
1.23808e-06
1.23461e-06
2.15434e-06
4.64326e-08
6.06507e-08
4.39239e-06
1.33951e-05
1.33076e-05
2.58637e-05
2.48518e-05
6.97875e-06
4.74156e-06
2.31234e-06
2.68431e-07
6.04346e-08
5.9763e-08
1.23069e-05
2.87862e-05
1.84105e-05
1.23514e-06
1.21212e-05
2.05654e-05
6.67156e-06
7.01163e-08
1.36409e-06
1.74609e-06
1.33058e-07
8.58751e-06
5.59052e-05
5.9573e-05
4.09914e-05
5.69122e-06
1.8724e-06
1.88726e-07
6.01376e-08
3.26118e-06
2.86623e-05
2.88287e-05
5.27378e-06
2.22412e-05
2.21467e-05
1.79815e-05
3.97158e-08
1.41987e-07
6.21544e-07
1.30709e-07
2.60142e-09
2.84787e-05
5.97302e-05
5.90954e-05
4.68466e-05
5.19302e-06
6.01345e-08
5.99381e-08
7.99221e-08
1.00078e-05
2.87871e-05
9.76418e-06
2.22321e-05
1.97769e-05
2.00266e-05
5.73899e-08
8.73884e-08
6.75049e-08
3.46633e-08
2.67314e-09
2.58473e-09
3.65576e-05
4.44554e-05
3.77127e-05
3.67352e-06
2.60209e-06
5.52844e-06
1.57725e-06
2.18571e-06
2.735e-05
1.35693e-05
1.29217e-05
7.08565e-06
6.98651e-06
2.32112e-08
6.33249e-09
1.05982e-08
4.77599e-09
2.58511e-09
2.58428e-09
5.16268e-06
3.23665e-05
3.58372e-05
2.57705e-05
2.62676e-05
1.76104e-05
5.17599e-07
2.64967e-08
2.2388e-05
1.2615e-05
7.01766e-06
6.98633e-06
6.97779e-06
3.59462e-09
3.59659e-09
4.92422e-09
3.79179e-07
1.68021e-06
4.0556e-06
1.07104e-05
2.53213e-05
2.94198e-05
2.9133e-05
2.69128e-05
7.58591e-06
1.04758e-07
2.64565e-08
2.16517e-05
1.30164e-05
6.98578e-06
6.9856e-06
1.38901e-05
5.83127e-09
4.46734e-09
4.47563e-09
3.25298e-07
2.38707e-06
4.17245e-06
4.16007e-06
5.71986e-06
1.11709e-05
1.20882e-05
4.65388e-06
9.55846e-08
3.02663e-08
3.15612e-06
6.16781e-06
3.72162e-06
9.71405e-06
9.97469e-06
1.3837e-05
3.53546e-09
5.46305e-09
1.20663e-08
3.19962e-08
1.21675e-07
7.80252e-08
4.17521e-08
5.60421e-08
4.43104e-08
1.83727e-09
1.8371e-09
8.81948e-09
1.21366e-07
1.42975e-06
1.51198e-08
1.51473e-08
8.04653e-06
1.07834e-05
1.13194e-05
1.0409e-09
1.2017e-09
1.57195e-09
1.83636e-09
1.73547e-09
3.12541e-09
3.77856e-09
4.74497e-09
4.88324e-09
6.32508e-09
8.75777e-09
5.68684e-08
1.9498e-07
3.94133e-08
1.56529e-08
8.97234e-08
1.92369e-09
2.32103e-06
2.42937e-07
3.56112e-10
4.32098e-10
5.8985e-10
8.66899e-10
1.45261e-09
2.68528e-09
3.82686e-09
4.94661e-09
5.93552e-09
8.2121e-09
1.2798e-08
4.08681e-08
1.53284e-07
4.60257e-08
2.09009e-08
1.80478e-08
2.02463e-09
2.45232e-07
2.49478e-07
1.66366e-10
2.41974e-10
3.47783e-10
5.07048e-10
7.80098e-10
1.26812e-09
2.04278e-09
3.04907e-09
4.21442e-09
6.07716e-09
1.17317e-08
2.32939e-08
4.3078e-08
2.81506e-08
1.39577e-08
2.97123e-09
2.02075e-09
3.54251e-07
2.45734e-07
8.92998e-11
1.35293e-10
2.0078e-10
2.93043e-10
4.36328e-10
6.52904e-10
1.0439e-09
1.71083e-09
2.83239e-09
4.77263e-09
9.44278e-09
1.46869e-08
2.13571e-08
1.89088e-08
6.53077e-09
2.48669e-09
3.97635e-08
4.66272e-07
2.34639e-07
4.41767e-11
7.15763e-11
1.10121e-10
1.69089e-10
2.62659e-10
4.1784e-10
6.93757e-10
1.1561e-09
1.94192e-09
3.38931e-09
6.77689e-09
1.17933e-08
1.80881e-08
1.77634e-08
6.06833e-09
1.70352e-08
1.70933e-07
3.0397e-07
7.70213e-08
2.12604e-11
3.39381e-11
5.40647e-11
8.53122e-11
1.35811e-10
2.26216e-10
3.87905e-10
6.80062e-10
1.19594e-09
2.09199e-09
4.0904e-09
8.52577e-09
1.359e-08
1.7551e-08
7.91754e-09
7.83135e-08
2.10563e-07
1.45164e-07
7.36664e-08
8.83393e-12
1.45785e-11
2.31387e-11
3.71231e-11
6.13271e-11
1.03926e-10
1.84246e-10
3.33391e-10
6.09443e-10
1.09703e-09
2.00378e-09
4.20901e-09
7.29124e-09
1.1382e-08
2.48594e-08
7.34005e-08
7.64761e-08
2.02601e-08
3.37348e-07
3.59689e-12
5.83577e-12
9.20846e-12
1.48478e-11
2.42741e-11
4.17206e-11
7.67323e-11
1.43262e-10
2.72456e-10
5.19237e-10
9.33018e-10
1.75233e-09
3.49593e-09
3.42991e-09
1.6404e-08
2.37351e-08
1.4141e-08
4.52793e-09
4.66899e-07
1.32379e-12
2.17472e-12
3.43093e-12
5.41511e-12
8.98532e-12
1.53335e-11
2.78194e-11
5.75902e-11
1.18403e-10
2.39601e-10
4.47063e-10
7.29998e-10
1.07712e-09
8.91582e-10
2.71946e-09
2.94319e-09
3.03418e-09
4.1579e-09
4.66885e-07
4.57306e-13
7.55345e-13
1.16899e-12
1.77737e-12
2.81425e-12
4.88791e-12
8.59331e-12
1.49474e-11
2.43378e-11
4.48314e-11
1.0749e-10
2.63899e-10
3.77776e-10
2.16822e-10
1.99592e-10
2.04306e-09
3.57847e-09
5.38979e-09
3.12906e-07
1.56208e-13
2.47706e-13
3.54007e-13
5.24262e-13
8.03851e-13
1.24435e-12
1.92728e-12
2.78171e-12
3.46121e-12
5.24507e-12
1.57299e-11
5.09932e-11
1.27814e-10
7.20164e-11
1.99745e-10
9.71896e-10
4.61806e-09
1.55379e-08
1.9073e-08
4.8178e-14
7.09924e-14
1.02889e-13
1.46453e-13
2.08026e-13
3.03739e-13
4.32042e-13
5.78855e-13
6.78757e-13
7.83985e-13
2.09335e-12
8.03416e-12
2.61242e-11
4.15742e-11
1.6871e-10
9.46878e-10
4.44466e-09
1.72727e-08
9.26523e-10
1.41685e-14
2.12003e-14
2.92268e-14
3.91782e-14
5.2463e-14
7.09744e-14
9.62699e-14
1.26627e-13
1.53519e-13
1.96722e-13
4.40924e-13
1.77821e-12
7.368e-12
2.38561e-11
6.16627e-11
5.2802e-10
2.41529e-09
9.66304e-09
9.23808e-10
4.07791e-15
5.78116e-15
7.81466e-15
1.01187e-14
1.30502e-14
1.71753e-14
2.29658e-14
3.00772e-14
3.81744e-14
5.32372e-14
1.2015e-13
4.76387e-13
2.08783e-12
8.03054e-12
2.13741e-11
1.27704e-10
7.03382e-10
1.06715e-09
8.23265e-10
1.00563e-15
1.49475e-15
2.00396e-15
2.56466e-15
3.29184e-15
4.39826e-15
6.13717e-15
8.71202e-15
1.2439e-14
1.90758e-14
3.84861e-14
1.22102e-13
5.09612e-13
2.08454e-12
7.62585e-12
2.22693e-11
7.66956e-11
1.91576e-10
4.30787e-10
2.40675e-16
3.59137e-16
4.86759e-16
6.3332e-16
8.45335e-16
1.21274e-15
1.90902e-15
3.28278e-15
5.92172e-15
1.0956e-14
2.22076e-14
5.38863e-14
1.70246e-13
5.66425e-13
2.12858e-12
6.59525e-12
2.23161e-11
5.30647e-11
1.90757e-10
5.2145e-17
7.98504e-17
1.10722e-16
1.49948e-16
2.14187e-16
3.51629e-16
6.81182e-16
1.46605e-15
3.25633e-15
7.15967e-15
1.52699e-14
3.38196e-14
8.66709e-14
2.56307e-13
6.51568e-13
1.55733e-12
6.17983e-12
1.97266e-11
2.3203e-11
1.0373e-17
1.57575e-17
2.26762e-17
3.29548e-17
5.22278e-17
1.00342e-16
2.43207e-16
6.44377e-16
1.7281e-15
4.37077e-15
1.01821e-14
2.23973e-14
5.12477e-14
1.30346e-13
3.34655e-13
7.54982e-13
1.26991e-12
2.94816e-12
5.61047e-12
1.85129e-18
2.81008e-18
4.20514e-18
6.53852e-18
1.1671e-17
2.70049e-17
7.94119e-17
2.56747e-16
8.0604e-16
2.3148e-15
6.04361e-15
1.44534e-14
3.23781e-14
7.5878e-14
1.89556e-13
4.05478e-13
5.2858e-13
6.70664e-13
8.29114e-13
2.78572e-19
4.31815e-19
6.68342e-19
1.11298e-18
2.21268e-18
5.84032e-18
2.00691e-17
7.57295e-17
2.73495e-16
8.98995e-16
2.6563e-15
7.06606e-15
1.7337e-14
4.12982e-14
1.01796e-13
2.31601e-13
3.85536e-13
4.14607e-13
2.94e-13
3.78501e-20
5.65211e-20
8.89252e-20
1.53535e-19
3.06845e-19
7.90776e-19
2.84775e-18
1.16988e-17
4.68832e-17
1.75584e-16
5.96581e-16
1.89453e-15
5.55262e-15
1.52716e-14
4.10408e-14
1.06901e-13
2.04472e-13
2.41621e-13
1.17298e-13
)
;

boundaryField
{
    leftWall
    {
        type            zeroGradient;
    }
    rightWall
    {
        type            zeroGradient;
    }
    lowerWall
    {
        type            zeroGradient;
    }
    atmosphere
    {
        type            inletOutlet;
        inletValue      uniform 0;
        value           nonuniform List<scalar> 
46
(
5.17888e-08
4.41352e-08
2.30356e-08
8.89964e-09
0
0
0
0
0
0
0
0
0
0
0
0
0
0
0
0
2.49484e-16
1.17941e-16
2.40586e-17
6.1687e-19
5.52236e-20
2.72937e-20
3.21891e-20
3.78501e-20
5.65211e-20
0
0
0
0
0
0
0
0
5.96581e-16
1.89453e-15
5.55262e-15
1.52716e-14
4.10408e-14
1.06901e-13
2.04472e-13
2.41621e-13
1.17298e-13
)
;
    }
    defaultFaces
    {
        type            empty;
    }
}


// ************************************************************************* //
