/*--------------------------------*- C++ -*----------------------------------*\
| =========                 |                                                 |
| \\      /  F ield         | OpenFOAM: The Open Source CFD Toolbox           |
|  \\    /   O peration     | Version:  2312                                  |
|   \\  /    A nd           | Website:  www.openfoam.com                      |
|    \\/     M anipulation  |                                                 |
\*---------------------------------------------------------------------------*/
FoamFile
{
    version     2.0;
    format      ascii;
    arch        "LSB;label=32;scalar=64";
    class       volScalarField;
    location    "3.6";
    object      p;
}
// * * * * * * * * * * * * * * * * * * * * * * * * * * * * * * * * * * * * * //

dimensions      [1 -1 -2 0 0 0 0];

internalField   nonuniform List<scalar> 
2268
(
4874.6
4872.94
4872.57
4876.07
4885.96
4904.16
4932
4970.42
5019.59
5078.53
5145.37
5218.8
5298.4
5384.62
5478.37
5580.39
5690.19
5805.32
5921.1
6030.59
6125.65
6197.54
6237.58
4077.72
4075.61
4075.07
4078.19
4087.71
4105.58
4133.15
4171.43
4220.68
4279.9
4346.95
4420.46
4500.02
4586.18
4679.93
4782.27
4892.75
5008.86
5125.97
5236.88
5333.36
5406.62
5447.71
3281.91
3278.96
3277.24
3279.07
3287.6
3304.73
3331.66
3369.6
3419
3478.81
3546.32
3620.02
3699.51
3785.52
3879.23
3982.14
4093.87
4211.97
4331.66
4445.08
4544.05
4619.89
4663.61
2486.22
2482.11
2478.46
2478.5
2485.51
2501.43
2527.31
2564.64
2614.21
2675.09
2743.37
2817.45
2896.88
2982.66
3076.26
3180.07
3293.74
3414.72
3538.34
3655.39
3757.95
3837.72
3885.27
1705.31
1700.33
1694.15
1690.95
1694.51
1706.45
1727.53
1760.39
1807.22
1868.67
1938.28
2013.02
2092.37
2177.76
2270.84
2375.88
2492.8
2617.05
2746.07
2867.69
2975.23
3060.8
3113.5
1182.2
1178.57
1173.93
1169.83
1167.53
1167.52
1170.54
1178.71
1193.55
1216.7
1249.96
1293.88
1346.01
1407.99
1481.43
1575.55
1689.78
1819.31
1955.01
2081.99
2195.98
2289.68
2349.16
1012.78
1011.4
1009.63
1006.39
1000.82
992.686
982.521
970.623
956.883
942.141
930.919
926.297
928.368
938.121
957.144
989.472
1046.27
1124.16
1215.96
1315.69
1428.22
1530.54
1596.65
954.09
952.62
950.825
947.493
941.796
933.506
923.172
911.141
897.043
880.905
862.877
842.5
822.594
804.134
788.685
772.5
762.715
761.01
768.63
793.75
842.055
896.244
928.129
2509.65
2509.21
2490.92
2459.94
2440.69
2449.53
2485.67
2540.65
2600.66
2656.85
2692.73
2689.78
2646.38
2570.24
2502.3
2487.51
2506.74
2527.75
2536.99
1744.6
1748.29
1730.45
1699.29
1676.83
1684.65
1721.99
1780.33
1840.34
1895.75
1934.53
1933.21
1886.21
1810.51
1756.32
1743.03
1758.68
1776.5
1785.07
1120.37
1124.38
1110.56
1082.66
1067.31
1074.58
1098.75
1141.75
1187.58
1239.17
1299.9
1303.73
1261.32
1201.1
1174.14
1165.4
1174.83
1189.9
1198.27
830.895
834.836
836.511
829.959
830.808
833.617
837.556
848.051
860.672
867.148
910.683
920.514
904.349
888.001
876.631
865.615
863.074
869.779
876.715
757.463
762.888
772.58
774.495
776.944
780.369
783.522
783.631
777.97
746.565
750.197
756.895
761.93
770.029
764.992
752.885
742.338
741.446
748.126
700.926
702.626
707.642
709.098
711.631
715.948
720.677
721.625
713.538
693.287
699.588
702.053
704.83
705.139
700.145
693.09
688.362
690.115
696.551
640.223
637.476
642.81
643.453
646.023
650.692
656.33
659.483
647.882
647.866
654.412
648.646
647.669
645.258
639.9
633.802
631.883
634.711
640.906
588.157
577.572
582.391
582.624
585.737
590.942
595.997
599.656
591.083
606.077
607.437
598.181
590.902
586.908
580.99
575.99
573.154
575.826
580.012
862.163
860.15
858.633
855.414
849.912
841.826
831.332
818.764
804.287
788.141
769.881
749.572
728.834
708.895
689.809
669.742
646.592
623.012
602.05
585.38
572.35
561.433
537.328
739.889
736.999
734.876
731.893
726.732
718.848
708.211
695.13
680.099
663.243
644.068
622.475
600.183
577.53
554.923
533.75
511.945
490.839
471.364
453.482
438.272
423.929
411.798
617.752
613.711
612.398
610.308
605.666
597.945
586.929
573.322
557.625
539.153
517.17
493.059
469.323
446
423.607
402.97
382.857
363.276
344.097
330.622
321.658
314.338
309.263
499.536
494.295
492.422
491.761
488.701
481.56
470.555
456.267
438.464
415.758
389.493
363.288
339.31
316.309
293.814
276.376
262.091
250.069
241.303
236.641
232.832
230.122
229.7
395.965
394.057
392.075
387.638
382.087
374.3
362.577
346.427
325.49
297.481
270.881
245.26
225.397
207.326
189.696
179.017
172.062
168.045
166.514
164.113
162.2
161.987
163.29
321.854
321.959
318.614
310.398
300.332
288.852
274.296
255.768
233.127
208.008
183.419
160.048
142.624
128.426
117.568
110.727
105.758
102.316
99.1804
96.2302
93.904
94.1164
96.1498
267.262
265.339
259.957
251.613
240.543
227.087
211.642
193.198
171.811
147.86
121.91
95.9147
73.1651
58.3313
48.4484
42.7272
39.2265
36.4937
33.5589
30.4468
29.1755
29.8451
32.6929
212.492
209.354
204.558
197.598
188.658
177.071
162.515
144.635
122.285
93.113
59.5408
32.0676
16.2875
9.23883
6.27492
4.79906
3.58881
2.63077
1.72503
1.00094
0.818749
1.39898
2.67705
156.46
153.584
149.977
144.504
137.204
127.688
115.465
99.8294
77.3663
42.1599
13.5722
4.11869
0.98103
-0.267935
-0.736971
-0.935291
-1.04673
-1.10755
-1.14274
-1.17141
-1.17613
-1.12701
-0.938947
99.6586
97.2424
94.3101
90.0865
84.4521
77.2126
67.5157
54.3486
34.2671
9.27115
2.57059
0.589368
-0.605783
-0.968344
-1.06082
-1.16328
-1.22594
-1.26594
-1.29599
-1.32164
-1.34262
-1.36527
-1.38977
44.3643
42.099
39.3
36.3413
32.9372
29.2863
24.8706
20.0199
12.1497
1.21674
-0.205431
-0.857001
-1.2129
-1.26316
-1.32183
-1.37544
-1.40796
-1.43017
-1.44828
-1.4663
-1.48465
-1.50869
-1.53636
11.1431
9.51652
7.45515
5.84993
4.16006
2.11225
-0.657214
-1.66245
-2.60267
-2.46653
-1.78871
-1.70922
-1.60162
-1.56133
-1.57454
-1.58832
-1.59627
-1.6024
-1.61113
-1.62334
-1.635
-1.65232
-1.67483
-2.59127
-2.60777
-2.62795
-2.63229
-2.65338
-2.71637
-2.76394
-2.79014
-2.84209
-2.6485
-2.30792
-2.08971
-1.89746
-1.82054
-1.79159
-1.78053
-1.77704
-1.77818
-1.78054
-1.78326
-1.79022
-1.80245
-1.81956
-2.70085
-2.71643
-2.72434
-2.71578
-2.72131
-2.74056
-2.75536
-2.77605
-2.76486
-2.61679
-2.41303
-2.244
-2.10638
-2.02607
-1.98223
-1.95969
-1.94817
-1.94272
-1.94151
-1.94357
-1.95016
-1.95974
-1.97143
-2.77131
-2.77485
-2.77455
-2.77248
-2.77601
-2.78006
-2.77683
-2.76538
-2.72582
-2.63027
-2.47968
-2.36989
-2.27087
-2.20145
-2.15703
-2.12978
-2.11417
-2.10599
-2.10317
-2.10459
-2.1097
-2.11639
-2.12282
-2.83249
-2.83257
-2.82814
-2.82254
-2.81756
-2.81188
-2.80206
-2.78162
-2.73698
-2.66076
-2.56761
-2.49115
-2.41948
-2.36323
-2.32293
-2.29544
-2.27788
-2.26767
-2.26199
-2.26075
-2.26268
-2.26588
-2.26899
-2.89967
-2.89893
-2.89437
-2.88782
-2.87949
-2.86857
-2.85346
-2.82995
-2.79082
-2.73433
-2.67117
-2.61426
-2.5618
-2.51706
-2.48153
-2.45537
-2.43641
-2.42302
-2.41429
-2.41008
-2.40909
-2.40979
-2.41155
-2.97359
-2.97276
-2.96871
-2.96229
-2.95327
-2.94094
-2.92445
-2.90158
-2.86945
-2.82803
-2.78297
-2.73881
-2.69677
-2.65966
-2.62876
-2.60443
-2.58544
-2.57112
-2.56136
-2.55552
-2.55266
-2.55195
-2.55293
-3.05436
-3.05359
-3.05009
-3.04417
-3.03548
-3.02352
-3.00777
-2.98722
-2.96123
-2.92963
-2.89483
-2.85946
-2.82523
-2.79444
-2.76804
-2.74615
-2.72849
-2.71479
-2.70486
-2.6982
-2.69424
-2.69252
-2.69231
-3.14204
-3.1413
-3.13824
-3.13292
-3.12497
-3.11406
-3.09986
-3.08197
-3.06014
-3.03473
-3.00697
-2.97852
-2.95086
-2.92541
-2.90294
-2.8837
-2.86774
-2.85498
-2.84527
-2.83829
-2.83367
-2.83098
-2.83038
-3.23577
-3.23514
-3.23252
-3.22787
-3.22082
-3.21114
-3.19863
-3.18314
-3.16471
-3.1437
-3.1212
-3.09809
-3.07542
-3.05421
-3.03507
-3.01829
-3.00403
-2.99231
-2.98307
-2.97612
-2.97122
-2.96816
-2.96685
-3.33467
-3.33416
-3.33196
-3.32795
-3.32181
-3.31337
-3.3025
-3.2892
-3.27363
-3.25617
-3.23746
-3.21836
-3.19951
-3.18167
-3.16528
-3.15066
-3.13799
-3.12734
-3.11869
-3.11196
-3.10701
-3.10369
-3.10187
-3.43782
-3.43741
-3.43558
-3.43215
-3.42686
-3.41955
-3.41016
-3.39877
-3.38556
-3.37088
-3.3552
-3.33911
-3.32329
-3.30817
-3.29407
-3.28132
-3.27009
-3.26047
-3.25248
-3.24609
-3.24121
-3.23774
-3.23558
-3.54442
-3.54412
-3.54258
-3.53966
-3.5351
-3.52879
-3.52069
-3.51091
-3.49964
-3.48718
-3.47394
-3.46036
-3.44689
-3.4339
-3.42176
-3.41065
-3.40071
-3.39206
-3.38474
-3.37874
-3.37401
-3.37051
-3.36813
-3.65388
-3.65365
-3.65236
-3.64986
-3.64593
-3.64048
-3.63348
-3.62505
-3.61536
-3.60471
-3.59342
-3.58185
-3.57034
-3.5592
-3.54867
-3.53893
-3.53014
-3.52238
-3.51571
-3.51013
-3.50564
-3.50217
-3.49966
-3.76571
-3.76553
-3.76443
-3.76229
-3.75889
-3.75416
-3.74809
-3.74078
-3.7324
-3.72322
-3.71352
-3.70359
-3.6937
-3.68408
-3.67493
-3.6664
-3.65863
-3.65169
-3.64563
-3.64048
-3.63624
-3.63286
-3.63032
-3.87957
-3.8794
-3.87843
-3.87656
-3.87361
-3.86949
-3.86419
-3.85781
-3.85051
-3.84254
-3.83414
-3.82556
-3.81701
-3.80866
-3.80069
-3.79322
-3.78634
-3.78014
-3.77467
-3.76994
-3.76597
-3.76274
-3.76021
-3.99507
-3.99491
-3.99403
-3.99237
-3.98979
-3.98618
-3.98153
-3.97592
-3.96951
-3.96254
-3.95522
-3.94775
-3.94031
-3.93305
-3.92608
-3.91952
-3.91344
-3.90791
-3.90297
-3.89866
-3.89498
-3.89192
-3.88945
-4.11178
-4.11165
-4.1109
-4.10944
-4.10717
-4.104
-4.09988
-4.09491
-4.08924
-4.0831
-4.07667
-4.07014
-4.06364
-4.05729
-4.05119
-4.04542
-4.04004
-4.03511
-4.03067
-4.02675
-4.02336
-4.0205
-4.01814
-4.22941
-4.22934
-4.22875
-4.22752
-4.22553
-4.22274
-4.21906
-4.21461
-4.20956
-4.20411
-4.19845
-4.19271
-4.18701
-4.18144
-4.17608
-4.171
-4.16624
-4.16186
-4.15788
-4.15434
-4.15124
-4.14858
-4.14635
-4.34793
-4.34792
-4.34745
-4.34643
-4.3447
-4.34222
-4.33891
-4.33489
-4.33035
-4.3255
-4.32049
-4.31543
-4.31042
-4.30553
-4.30081
-4.29633
-4.29213
-4.28824
-4.28468
-4.28149
-4.27868
-4.27623
-4.27416
-4.46721
-4.46724
-4.46689
-4.46604
-4.46453
-4.46233
-4.45929
-4.45562
-4.45153
-4.44718
-4.44273
-4.43827
-4.43386
-4.42956
-4.42542
-4.42147
-4.41776
-4.41431
-4.41115
-4.4083
-4.40576
-4.40353
-4.40162
-4.58706
-4.58714
-4.58691
-4.58625
-4.58499
-4.58295
-4.58011
-4.5767
-4.57299
-4.56909
-4.56514
-4.5612
-4.55733
-4.55355
-4.54992
-4.54645
-4.54319
-4.54014
-4.53735
-4.53481
-4.53253
-4.53053
-4.52878
-4.70729
-4.70741
-4.70729
-4.70681
-4.70576
-4.7039
-4.70124
-4.69805
-4.69465
-4.69115
-4.68764
-4.68418
-4.68079
-4.6775
-4.67433
-4.6713
-4.66844
-4.66577
-4.66331
-4.66107
-4.65906
-4.65727
-4.65571
-4.82768
-4.82785
-4.82783
-4.8275
-4.82661
-4.82494
-4.82247
-4.81952
-4.8164
-4.81327
-4.81018
-4.80717
-4.80424
-4.8014
-4.79865
-4.79603
-4.79355
-4.79123
-4.78909
-4.78714
-4.78538
-4.78381
-4.78242
-4.94808
-4.94825
-4.94829
-4.9481
-4.94731
-4.94581
-4.9436
-4.94092
-4.93814
-4.9354
-4.93274
-4.93016
-4.92766
-4.92524
-4.9229
-4.92066
-4.91854
-4.91655
-4.91471
-4.91303
-4.91152
-4.91016
-4.90896
-5.06838
-5.06851
-5.06854
-5.06851
-5.06778
-5.06647
-5.06459
-5.06217
-5.05983
-5.05752
-5.05529
-5.05314
-5.05105
-5.04903
-5.04708
-5.0452
-5.04342
-5.04175
-5.0402
-5.03879
-5.03751
-5.03637
-5.03536
-5.1886
-5.18867
-5.1887
-5.1886
-5.188
-5.1869
-5.18533
-5.18344
-5.18151
-5.17964
-5.17785
-5.17612
-5.17443
-5.17279
-5.1712
-5.16966
-5.16821
-5.16684
-5.16558
-5.16443
-5.16339
-5.16246
-5.16163
-5.30876
-5.30878
-5.30874
-5.30859
-5.30809
-5.30721
-5.30603
-5.30464
-5.30322
-5.30181
-5.30045
-5.29913
-5.29782
-5.29653
-5.29528
-5.29408
-5.29294
-5.29186
-5.29088
-5.28998
-5.28917
-5.28846
-5.28782
-5.42894
-5.4289
-5.42878
-5.42858
-5.42816
-5.42756
-5.4268
-5.42592
-5.425
-5.42405
-5.42314
-5.42219
-5.42123
-5.42028
-5.41936
-5.41846
-5.41762
-5.41683
-5.41611
-5.41546
-5.41489
-5.41438
-5.41393
-5.54918
-5.5491
-5.54891
-5.54866
-5.54833
-5.54803
-5.5477
-5.54731
-5.54688
-5.5464
-5.54588
-5.5453
-5.54469
-5.54407
-5.54345
-5.54285
-5.54228
-5.54177
-5.5413
-5.5409
-5.54055
-5.54026
-5.53999
-5.66956
-5.66949
-5.6693
-5.66903
-5.66873
-5.66868
-5.66875
-5.66883
-5.66886
-5.66882
-5.66868
-5.66846
-5.66819
-5.66789
-5.66757
-5.66726
-5.66697
-5.66671
-5.66649
-5.66631
-5.6662
-5.66611
-5.66602
512.449
511.521
514.079
514.72
409.256
408.653
408.769
410.023
308.346
308.919
311.387
313.867
231.619
233.081
235.308
237.669
165.616
167.375
169.344
171.643
98.7209
100.517
102.779
105.638
35.6844
37.6596
39.9923
42.3378
4.25923
5.39453
6.50102
7.89527
-0.689327
-0.504345
-0.443621
-0.0208942
-1.40599
-1.41221
-1.41289
-1.43106
-1.55266
-1.55795
-1.56108
-1.5707
-1.69274
-1.70316
-1.71173
-1.71987
-1.83318
-1.84208
-1.85059
-1.85813
-1.98071
-1.98695
-1.99323
-1.9991
-2.12894
-2.13345
-2.13803
-2.14269
-2.27316
-2.27656
-2.28019
-2.28427
-2.41476
-2.41742
-2.42047
-2.42404
-2.55517
-2.55716
-2.5596
-2.56251
-2.69392
-2.69537
-2.69722
-2.69947
-2.8312
-2.83208
-2.83328
-2.83475
-2.96701
-2.96741
-2.96811
-2.96907
-3.10151
-3.10154
-3.10183
-3.10235
-3.23483
-3.23458
-3.23455
-3.23474
-3.3671
-3.36664
-3.36638
-3.36631
-3.49844
-3.49783
-3.4974
-3.49713
-3.62898
-3.62827
-3.62771
-3.6273
-3.75881
-3.75804
-3.75741
-3.7569
-3.88804
-3.88724
-3.88656
-3.88599
-4.01674
-4.01594
-4.01524
-4.01464
-4.145
-4.14421
-4.14352
-4.1429
-4.27287
-4.27212
-4.27144
-4.27083
-4.40041
-4.3997
-4.39906
-4.39847
-4.52768
-4.52702
-4.52642
-4.52587
-4.6547
-4.6541
-4.65355
-4.65304
-4.78153
-4.78099
-4.7805
-4.78004
-4.90818
-4.90772
-4.90728
-4.90688
-5.0347
-5.0343
-5.03393
-5.03359
-5.1611
-5.16078
-5.16048
-5.16019
-5.28741
-5.28716
-5.28693
-5.28671
-5.41364
-5.41347
-5.4133
-5.41315
-5.53982
-5.53972
-5.53962
-5.53953
-5.66597
-5.66594
-5.66592
-5.66589
514.171
495.525
496.728
498.991
501.949
505.64
509.574
512.407
511.25
523.219
523.525
508.997
500.318
495.812
493.838
496.303
495.279
488.801
489.228
410.285
397.403
398.423
404.853
407.076
408.166
410.123
409.722
406.757
407.49
406.769
397.23
391.663
392.897
398.873
405.268
401.661
389.836
390.352
315.052
314.873
319.163
323.434
325.876
326.773
330.266
327.924
322.539
317.589
313.567
308.804
306.293
308.068
314.454
318.498
312.989
311.469
312.93
241.029
245.637
250.271
252.783
253.668
254.464
255.13
252.184
249.275
243.553
240.314
236.432
232.148
229.322
232.008
234.448
232.335
239.559
239.851
176.245
182.061
185.636
187.839
188.929
188.48
184.12
181.754
179.926
176.942
172.528
169.335
166
161.387
160.351
164.376
162.212
168.987
172.658
111.176
117.422
121.181
123.989
125.486
125.618
123.409
122.303
120.014
116.628
112.108
108.49
104.275
99.2916
95.8418
98.5409
101.371
102.14
109.116
46.6364
52.9223
57.418
61.0002
62.6242
62.8009
61.8111
60.9081
59.7129
56.9362
53.4015
49.1616
44.3124
38.9638
35.3809
35.8712
44.5434
41.8364
47.3804
9.99622
11.3692
13.4722
15.2336
15.9504
15.9344
16.1537
16.2824
16.3579
15.887
12.7859
9.78557
7.21394
4.56832
3.46579
3.83488
8.05807
7.71098
8.45784
0.43304
0.115892
-0.0937788
-0.358052
-0.354336
-0.245931
0.306131
0.927552
0.845705
0.305824
-0.220952
-0.910682
-1.20442
-1.29766
-1.29375
-1.28183
-1.26112
-0.860195
-0.401173
-1.45434
-1.46694
-1.49129
-1.43874
-1.43792
-1.45077
-1.45818
-1.45174
-1.49741
-1.58735
-1.61144
-1.58745
-1.55134
-1.49036
-1.45917
-1.45094
-1.44298
-1.48987
-1.34565
-1.58825
-1.6071
-1.638
-1.66803
-1.65241
-1.63909
-1.66772
-1.71448
-1.75117
-1.76876
-1.76184
-1.72953
-1.69171
-1.64599
-1.61586
-1.59858
-1.59154
-1.62273
-1.62575
-1.73226
-1.74794
-1.76943
-1.78837
-1.79709
-1.80853
-1.83572
-1.8719
-1.90076
-1.91314
-1.89926
-1.8668
-1.83343
-1.79418
-1.76669
-1.74744
-1.73379
-1.73814
-1.74323
-1.86947
-1.88274
-1.89925
-1.91919
-1.94041
-1.96302
-1.98653
-2.00847
-2.02548
-2.03486
-2.02611
-1.99795
-1.97042
-1.93413
-1.90643
-1.89215
-1.87402
-1.86413
-1.86258
-2.00845
-2.02028
-2.03408
-2.05281
-2.07726
-2.10065
-2.11816
-2.13263
-2.14541
-2.15148
-2.14467
-2.12546
-2.10321
-2.07341
-2.04406
-2.0421
-2.03226
-2.01819
-2.01112
-2.15057
-2.16158
-2.17401
-2.19011
-2.21098
-2.23009
-2.24378
-2.25448
-2.26296
-2.26752
-2.26202
-2.24755
-2.2319
-2.21542
-2.18601
-2.20009
-2.20403
-2.19039
-2.18326
-2.29142
-2.30185
-2.31385
-2.32766
-2.34275
-2.35765
-2.36806
-2.37553
-2.3804
-2.38244
-2.3782
-2.36894
-2.35861
-2.35087
-2.33412
-2.3455
-2.36241
-2.35178
-2.34587
-2.43019
-2.43952
-2.4503
-2.46105
-2.47193
-2.48323
-2.49241
-2.49824
-2.50167
-2.50158
-2.4981
-2.49215
-2.48548
-2.48076
-2.47316
-2.47688
-2.49048
-2.48738
-2.48402
-2.56758
-2.57532
-2.58376
-2.59192
-2.60028
-2.60936
-2.61834
-2.62419
-2.62686
-2.626
-2.62312
-2.61892
-2.61342
-2.60904
-2.60536
-2.6061
-2.60583
-2.6078
-2.60666
-2.70368
-2.70993
-2.71656
-2.72298
-2.7297
-2.73767
-2.74599
-2.75219
-2.75474
-2.75406
-2.75181
-2.74786
-2.74249
-2.73815
-2.73679
-2.73698
-2.73188
-2.73476
-2.73374
-2.83759
-2.84308
-2.84848
-2.8539
-2.85976
-2.8665
-2.87324
-2.87862
-2.88145
-2.88164
-2.87992
-2.87638
-2.8721
-2.86867
-2.86999
-2.86867
-2.86867
-2.87098
-2.87086
-2.9711
-2.97508
-2.97936
-2.98399
-2.98898
-2.99424
-2.99923
-3.00334
-3.00599
-3.00683
-3.00599
-3.0038
-3.00115
-2.9992
-3.0012
-3.00116
-3.00751
-3.00858
-3.00889
-3.1036
-3.10626
-3.10961
-3.11326
-3.11723
-3.12133
-3.1251
-3.12822
-3.13037
-3.1314
-3.13129
-3.13026
-3.12898
-3.12839
-3.13084
-3.13494
-3.13889
-3.13719
-3.13517
-3.23538
-3.23712
-3.23949
-3.24225
-3.24526
-3.24832
-3.25118
-3.25356
-3.25528
-3.25625
-3.25647
-3.25608
-3.25556
-3.25552
-3.2575
-3.26176
-3.26144
-3.25741
-3.25182
-3.36647
-3.36747
-3.36906
-3.37104
-3.37324
-3.37549
-3.37759
-3.37939
-3.38072
-3.38153
-3.38181
-3.38164
-3.3813
-3.38105
-3.3814
-3.38293
-3.381
-3.3765
-3.36989
-3.49693
-3.49736
-3.49831
-3.49965
-3.5012
-3.50282
-3.50434
-3.50566
-3.50665
-3.50725
-3.50746
-3.50729
-3.50684
-3.50618
-3.50532
-3.50477
-3.50254
-3.49856
-3.49234
-3.62683
-3.62682
-3.6273
-3.6281
-3.62913
-3.63024
-3.63132
-3.63226
-3.63296
-3.63338
-3.63349
-3.63325
-3.6327
-3.63178
-3.6304
-3.62892
-3.62654
-3.62334
-3.61854
-3.75624
-3.75589
-3.75598
-3.75639
-3.75699
-3.75771
-3.75844
-3.75908
-3.75956
-3.75981
-3.75986
-3.75957
-3.75898
-3.75801
-3.75656
-3.75486
-3.75268
-3.7501
-3.7467
-3.8852
-3.88461
-3.88441
-3.8845
-3.8848
-3.8852
-3.88565
-3.88606
-3.88636
-3.88651
-3.88647
-3.88618
-3.88562
-3.88473
-3.88343
-3.8819
-3.88008
-3.87803
-3.87512
-4.01377
-4.01301
-4.0126
-4.01246
-4.01251
-4.01268
-4.01291
-4.01314
-4.0133
-4.01336
-4.01327
-4.013
-4.01251
-4.01175
-4.01068
-4.00944
-4.008
-4.00645
-4.00411
-4.142
-4.14113
-4.14057
-4.14026
-4.14014
-4.14013
-4.1402
-4.14028
-4.14034
-4.14032
-4.14021
-4.13996
-4.13953
-4.13892
-4.13804
-4.1371
-4.13608
-4.13495
-4.13323
-4.26993
-4.269
-4.26835
-4.26793
-4.26767
-4.26754
-4.26748
-4.26746
-4.26743
-4.26736
-4.26723
-4.26699
-4.26663
-4.26613
-4.26542
-4.26476
-4.2641
-4.26334
-4.26217
-4.39759
-4.39665
-4.39596
-4.39546
-4.39511
-4.39489
-4.39474
-4.39465
-4.39456
-4.39445
-4.3943
-4.39408
-4.39377
-4.39338
-4.39287
-4.39241
-4.39194
-4.39144
-4.39069
-4.52503
-4.52411
-4.5234
-4.52287
-4.52247
-4.52219
-4.52198
-4.52183
-4.5217
-4.52157
-4.52141
-4.5212
-4.52094
-4.52065
-4.52037
-4.52001
-4.51965
-4.51921
-4.51878
-4.65227
-4.6514
-4.6507
-4.65016
-4.64974
-4.64942
-4.64918
-4.64899
-4.64884
-4.64869
-4.64853
-4.64835
-4.64813
-4.6479
-4.64772
-4.64751
-4.64722
-4.64683
-4.64659
-4.77934
-4.77853
-4.77788
-4.77735
-4.77693
-4.7766
-4.77634
-4.77613
-4.77596
-4.77581
-4.77567
-4.7755
-4.77532
-4.77513
-4.77498
-4.77487
-4.77469
-4.77439
-4.77418
-4.90626
-4.90554
-4.90494
-4.90445
-4.90405
-4.90372
-4.90346
-4.90325
-4.90307
-4.90292
-4.90277
-4.90264
-4.90249
-4.90234
-4.9022
-4.9021
-4.902
-4.90175
-4.90156
-5.03306
-5.03243
-5.0319
-5.03146
-5.03109
-5.03079
-5.03054
-5.03033
-5.03016
-5.03002
-5.02989
-5.02977
-5.02965
-5.02952
-5.0294
-5.02929
-5.02919
-5.02902
-5.02888
-5.15975
-5.15923
-5.15878
-5.1584
-5.15808
-5.15781
-5.15758
-5.15739
-5.15724
-5.15711
-5.157
-5.15689
-5.15679
-5.15669
-5.15659
-5.1565
-5.15642
-5.15633
-5.15622
-5.28636
-5.28595
-5.28559
-5.28528
-5.28502
-5.28479
-5.2846
-5.28444
-5.2843
-5.28419
-5.2841
-5.28401
-5.28393
-5.28385
-5.28378
-5.28372
-5.28368
-5.28364
-5.28357
-5.4129
-5.4126
-5.41234
-5.41211
-5.41191
-5.41174
-5.41159
-5.41146
-5.41136
-5.41127
-5.41121
-5.41113
-5.41106
-5.41102
-5.41098
-5.41096
-5.41096
-5.41096
-5.41091
-5.53939
-5.53921
-5.53903
-5.5389
-5.53878
-5.53867
-5.53857
-5.53849
-5.53842
-5.53837
-5.53836
-5.53826
-5.53821
-5.53819
-5.53819
-5.53822
-5.53827
-5.53829
-5.53823
-5.66585
-5.6658
-5.66576
-5.66568
-5.66563
-5.66559
-5.66555
-5.66551
-5.66547
-5.66542
-5.66534
-5.66536
-5.66536
-5.66538
-5.66543
-5.66552
-5.66563
-5.66569
-5.66555
)
;

boundaryField
{
    leftWall
    {
        type            calculated;
        value           nonuniform List<scalar> 
50
(
4874.6
4077.72
3281.91
2486.22
1705.31
1182.2
1012.78
954.09
862.163
739.889
617.752
499.536
395.965
321.854
267.262
212.492
156.46
99.6586
44.3643
11.1431
-2.59127
-2.70085
-2.77131
-2.83249
-2.89967
-2.97359
-3.05436
-3.14204
-3.23577
-3.33467
-3.43782
-3.54442
-3.65388
-3.76571
-3.87957
-3.99507
-4.11178
-4.22941
-4.34793
-4.46721
-4.58706
-4.70729
-4.82768
-4.94808
-5.06838
-5.1886
-5.30876
-5.42894
-5.54918
-5.66956
)
;
    }
    rightWall
    {
        type            calculated;
        value           nonuniform List<scalar> 
50
(
2536.99
1785.07
1198.27
876.715
748.126
696.551
640.906
580.012
489.228
390.352
312.93
239.851
172.658
109.116
47.3804
8.45784
-0.401173
-1.34565
-1.62575
-1.74323
-1.86258
-2.01112
-2.18326
-2.34587
-2.48402
-2.60666
-2.73374
-2.87086
-3.00889
-3.13517
-3.25182
-3.36989
-3.49234
-3.61854
-3.7467
-3.87512
-4.00411
-4.13323
-4.26217
-4.39069
-4.51878
-4.64659
-4.77418
-4.90156
-5.02888
-5.15622
-5.28357
-5.41091
-5.53823
-5.66555
)
;
    }
    lowerWall
    {
        type            calculated;
        value           nonuniform List<scalar> 
62
(
5272.75
5271.09
5270.72
5274.22
5284.11
5302.31
5330.15
5368.57
5417.74
5476.68
5543.52
5616.95
5696.55
5782.77
5876.52
5978.54
6088.34
6203.47
6319.25
6428.74
6523.8
6595.67
6635.71
6237.58
5447.71
4663.61
3885.27
3113.5
2349.16
1596.65
928.129
584.431
573.729
572.09
567.975
2509.65
1744.6
1120.37
830.895
757.463
700.926
640.223
588.157
2892.23
2890.75
2871.9
2841.74
2822.5
2829.63
2865.51
2920.64
2981.04
3037.66
3073.64
3070.88
3027.6
2951.41
2883.41
2868.37
2887.19
2907.74
2916.97
)
;
    }
    atmosphere
    {
        type            calculated;
        value           nonuniform List<scalar> 
46
(
-5.72967
-5.72956
-5.72954
-5.72941
-5.72904
-5.72922
-5.72948
-5.72975
-5.72999
-5.73013
-5.73016
-5.7301
-5.72999
-5.72984
-5.72967
-5.7295
-5.72935
-5.72921
-5.72911
-5.72905
-5.72904
-5.72904
-5.72904
-5.72904
-5.72904
-5.72904
-5.72904
-5.72904
-5.72904
-5.72904
-5.72904
-5.72905
-5.72905
-5.72905
-5.72905
-5.72904
-5.72904
-5.72904
-5.72904
-5.72904
-5.72905
-5.72906
-5.72913
-5.72927
-5.72937
-5.72906
)
;
    }
    defaultFaces
    {
        type            empty;
    }
}


// ************************************************************************* //
