/*--------------------------------*- C++ -*----------------------------------*\
| =========                 |                                                 |
| \\      /  F ield         | OpenFOAM: The Open Source CFD Toolbox           |
|  \\    /   O peration     | Version:  2312                                  |
|   \\  /    A nd           | Website:  www.openfoam.com                      |
|    \\/     M anipulation  |                                                 |
\*---------------------------------------------------------------------------*/
FoamFile
{
    version     2.0;
    format      ascii;
    arch        "LSB;label=32;scalar=64";
    class       volScalarField;
    location    "3.6";
    object      p_rgh;
}
// * * * * * * * * * * * * * * * * * * * * * * * * * * * * * * * * * * * * * //

dimensions      [1 -1 -2 0 0 0 0];

internalField   nonuniform List<scalar> 
2268
(
5272.75
5271.09
5270.72
5274.22
5284.11
5302.31
5330.15
5368.57
5417.74
5476.68
5543.52
5616.95
5696.55
5782.77
5876.52
5978.54
6088.34
6203.47
6319.25
6428.74
6523.8
6595.67
6635.71
5272.17
5270.06
5269.52
5272.64
5282.16
5300.03
5327.59
5365.88
5415.13
5474.35
5541.4
5614.91
5694.47
5780.63
5874.38
5976.72
6087.2
6203.31
6320.42
6431.33
6527.81
6601.04
6642.11
5272.66
5269.71
5267.99
5269.82
5278.35
5295.48
5322.41
5360.34
5409.74
5469.56
5537.07
5610.77
5690.26
5776.27
5869.98
5972.89
6084.62
6202.71
6322.41
6435.83
6534.8
6610.64
6654.34
5273.18
5269.07
5265.51
5265.54
5272.56
5288.48
5314.36
5351.68
5401.26
5462.14
5530.42
5604.49
5683.93
5769.71
5863.3
5967.12
6080.79
6201.77
6325.39
6442.44
6545
6624.76
6672.31
5160.69
5148.22
5134.66
5130.34
5145
5181.32
5233.85
5300.85
5376.98
5451.82
5521.54
5596.28
5675.61
5760.81
5854.08
5959.23
6075.32
6200.11
6328.72
6450.88
6558.57
6644.14
6696.85
2723.83
2694.75
2651.35
2631.22
2661.67
2750.76
2897.16
3125.44
3457.36
3907.13
4353.5
4739.03
5083.68
5394.18
5666.19
5888.86
6055.35
6188.84
6333.84
6461.64
6575.63
6669.33
6720.83
1394.6
1392.76
1391.02
1388.08
1383.01
1375.09
1365
1353.12
1339.35
1324.23
1398.83
1611.8
1904.73
2283.46
2740.12
3420.61
4183.84
4986.29
5764.75
6285.41
6509.58
6635.71
6708.08
1395.36
1393.81
1391.86
1388.91
1383.38
1375.23
1364.77
1352.57
1338.38
1320.34
1298.18
1278.04
1259.51
1241.41
1223.69
1198.54
1385.32
1775.7
2299.45
2985.71
3990.14
4966.8
5634.06
2892.23
2890.75
2871.9
2841.74
2822.5
2829.63
2865.51
2920.64
2981.04
3037.66
3073.64
3070.88
3027.6
2951.41
2883.41
2868.37
2887.19
2907.74
2916.97
2885.75
2892.09
2874.39
2839.38
2814.1
2824.31
2861.7
2916.11
2978.56
3043.04
3082.93
3082.17
3035.14
2932.72
2809.37
2803.11
2854.23
2895.63
2899.04
2326.73
2359.28
2316.79
2227.4
2133
2158.63
2279.43
2431.74
2560.33
2633.28
2605.44
2581.34
2483.03
2304.17
2214.79
2204.52
2250.42
2260.79
2270.24
1164.98
1147.88
1071.25
999.918
993.249
995.536
1002.87
1088.93
1223.52
1538.2
1903.7
1910.94
1693.79
1420.42
1371.66
1427.22
1533.78
1624.58
1639.42
976.942
1011.98
1050.46
1049.46
1040.55
1038.74
1042.06
1050.21
1043.81
963.272
980.817
1016.34
1038.69
1071.41
1057.12
1021.22
994.896
963.334
948.217
1010.67
1063.98
1076.76
1078.5
1082.2
1086.78
1078.75
1068.51
1086.63
938.48
947.188
1015.38
1025.09
1029.82
1025.17
1029.31
1006.6
992.239
990.803
987
1054.27
1041
1023.78
1027.32
1035.57
1051.39
1045.7
1074.28
929.416
985.902
1006.55
1016.85
1006.49
1005.79
1002.78
1006.14
1005.34
1015.9
966.577
1013.78
1019.25
1000.79
1008.57
1014.01
1030.56
1033.08
1050.54
934.318
953.786
995.314
1016.51
995.437
1003.08
998.161
1013.06
1026.92
1037.51
1395.43
1393.42
1391.96
1389.42
1383.93
1375.51
1364.74
1352.43
1337.02
1312.08
1295.7
1276.49
1259.98
1246.37
1264.61
1244.66
1219.96
1176.17
1135.16
1123.68
1137.91
1233.73
1350.03
1398.56
1394.98
1392.46
1389.83
1385.47
1377.73
1366.95
1353.74
1338.72
1318.2
1298.11
1278.77
1254.8
1248.77
1225.36
1203.9
1170.1
1149.43
1135.37
1119.18
1091.22
1063.92
1024.71
1403.58
1397.43
1390.17
1393.88
1392.51
1385.64
1373.78
1357.4
1341.4
1327.15
1326.33
1296.93
1273.8
1231.99
1208.66
1195.56
1157.71
1138.8
1096.6
1001.29
940.882
903.393
899.101
1388.24
1325.19
1351.91
1388.24
1389.88
1385.66
1357.13
1329.34
1331.28
1342.6
1325.83
1279.86
1233.4
1200.33
1163.87
1139.7
1060.75
944.119
789.864
734.585
719.279
698.854
686.329
1204.05
1117.58
1094
1224.21
1319
1330.68
1326.59
1320.08
1310.21
1279.13
1186.24
1100.36
1022.01
927.294
811.382
769.189
722.121
683.468
681.873
695.463
686.863
681.34
681.539
888.411
889.386
935.56
914.834
956.341
1048.36
1073.84
1070.63
1008.34
874.875
791.62
721.513
723.199
734.562
697.268
687.309
685.932
680.873
678.199
675.878
673.854
674.842
678.672
873.925
918.638
913.761
898.725
854.969
834.351
837.922
833.401
811.052
788.049
748.538
695.033
679.217
664.819
645.183
635.451
624.164
610.322
586.161
556.055
535.168
531.248
546.455
899.709
931.681
913.224
903.281
892.902
881.469
867.464
850.284
827.236
797.854
695.316
509.672
318.737
203.039
155.135
129.656
105.754
85.0912
64.4419
47.6399
42.8393
52.1425
71.1529
926.618
922.247
918.475
912.374
905.149
896.358
884.587
868.267
819.266
613.556
264.341
70.709
23.028
12.4754
4.77453
2.25284
0.822754
0.452528
0.410479
0.377278
0.454842
2.00533
7.22039
933.773
938.468
929.203
921.36
915.57
908.797
900.821
882.639
744.641
289.119
18.0367
13.454
6.60312
0.928596
0.606624
0.498561
0.436326
0.397959
0.370464
0.344059
0.322652
0.297161
0.288879
952.021
953.546
934.906
903.716
869.418
824.367
757.343
636.544
442.503
98.0942
15.7965
10.0161
1.07743
0.524014
0.466162
0.412898
0.38028
0.361714
0.354952
0.338787
0.309649
0.278792
0.252289
428.646
376.793
313.686
264.722
213.482
154.653
69.1263
41.1696
12.5895
2.83863
7.07513
3.22118
0.312687
0.356909
0.344603
0.326624
0.318545
0.311675
0.307615
0.307865
0.303166
0.281463
0.250249
-0.246647
-0.571824
-0.590949
-0.594997
-0.617397
-0.680476
-0.727996
-0.754311
-0.442491
-0.000863387
-0.219729
-0.0530175
0.140297
0.220148
0.247275
0.257829
0.26168
0.260046
0.257464
0.283341
0.326892
0.286479
0.229004
-0.539581
-0.55466
-0.561999
-0.553712
-0.559576
-0.578447
-0.590302
-0.599364
-0.514193
0.0360901
-0.233024
-0.0818472
0.0564582
0.137422
0.182508
0.208554
0.218787
0.220298
0.265922
0.318603
0.343244
0.318721
0.21642
-0.484707
-0.486915
-0.485601
-0.48375
-0.48793
-0.49292
-0.489435
-0.476926
-0.438103
-0.333281
-0.187875
-0.0828247
0.0157333
0.1015
0.174254
0.203751
0.20931
0.263549
0.282156
0.336067
0.319727
0.26678
0.19128
-0.420693
-0.419624
-0.413739
-0.406033
-0.399577
-0.395099
-0.388711
-0.368709
-0.324522
-0.248307
-0.152244
-0.0265358
0.112134
0.200449
0.236852
0.276765
0.272045
0.244781
0.213354
0.202568
0.18746
0.156262
0.14652
-0.362918
-0.362025
-0.356824
-0.347176
-0.336239
-0.325217
-0.309731
-0.286898
-0.2383
-0.105485
0.00129296
0.0581302
0.0871934
0.122804
0.145415
0.172122
0.159389
0.125246
0.1265
0.126686
0.127525
0.127063
0.125204
-0.311731
-0.3109
-0.306635
-0.299285
-0.286706
-0.270493
-0.251266
-0.22407
-0.134291
-0.0752192
-0.0449845
-0.0298179
-0.0255746
0.0120128
0.0539367
0.0672888
0.0804783
0.0906887
0.100454
0.1063
0.109152
0.109859
0.108893
-0.267295
-0.266541
-0.262956
-0.256808
-0.247794
-0.234205
-0.214742
-0.185561
-0.15943
-0.134115
-0.107383
-0.07234
-0.0377849
-0.0055836
0.0215823
0.0408642
0.0585219
0.0722197
0.0821554
0.0888088
0.0927677
0.094471
0.0946831
-0.229774
-0.229072
-0.225944
-0.220542
-0.212461
-0.201362
-0.186697
-0.168717
-0.147644
-0.122293
-0.0945711
-0.0661554
-0.0384405
-0.013056
0.00927502
0.0285109
0.0444631
0.0572191
0.0669229
0.0738929
0.0785172
0.0811978
0.0817987
-0.1983
-0.197728
-0.195071
-0.190358
-0.183247
-0.173529
-0.161025
-0.145555
-0.127103
-0.106113
-0.0836498
-0.0605751
-0.0379313
-0.016764
0.00234605
0.0191044
0.0333532
0.0450626
0.0543009
0.0612519
0.066147
0.069211
0.0705184
-0.172001
-0.171566
-0.16934
-0.165304
-0.159135
-0.150658
-0.139778
-0.126486
-0.110922
-0.0934896
-0.074813
-0.055736
-0.0369087
-0.0190762
-0.0027031
0.0119069
0.0245755
0.0352254
0.0438672
0.0505968
0.0555466
0.0588739
0.0606865
-0.149933
-0.149639
-0.14779
-0.144352
-0.139041
-0.131719
-0.122334
-0.11095
-0.0977566
-0.0830877
-0.0674246
-0.0513406
-0.03553
-0.0204089
-0.00631771
0.00642853
0.0176589
0.0272793
0.035267
0.0416606
0.0465451
0.0500071
0.0521685
-0.13131
-0.131155
-0.129618
-0.126695
-0.122133
-0.115816
-0.107726
-0.0979494
-0.0866832
-0.0742297
-0.0609885
-0.0474078
-0.0339405
-0.0209581
-0.0088211
0.00229782
0.012232
0.0208806
0.028203
0.0342069
0.0389305
0.0424314
0.0448147
-0.11554
-0.115493
-0.11421
-0.111715
-0.107787
-0.10233
-0.0953381
-0.0869051
-0.0772225
-0.0665674
-0.055278
-0.0437101
-0.0322052
-0.0210607
-0.0105304
-0.000797735
0.00799502
0.0157534
0.0224263
0.0280022
0.0325016
0.035969
0.0384756
-0.102167
-0.102181
-0.101094
-0.0989485
-0.095553
-0.0908231
-0.0847562
-0.0774444
-0.0690695
-0.0598855
-0.0501837
-0.0402548
-0.0303643
-0.0207456
-0.0115968
-0.00307395
0.00470187
0.011644
0.0177002
0.0228483
0.0270941
0.030467
0.0330155
-0.0907921
-0.0908571
-0.0898988
-0.0880274
-0.0850761
-0.080957
-0.0756638
-0.069283
-0.0619876
-0.0540142
-0.045616
-0.0370337
-0.02848
-0.0201394
-0.012168
-0.00469345
0.00218236
0.00838358
0.0138595
0.018584
0.0225535
0.0257852
0.028314
-0.0810711
-0.0811712
-0.0803083
-0.0786429
-0.0760613
-0.0724548
-0.0678053
-0.0621937
-0.055791
-0.0488168
-0.0414956
-0.03403
-0.0265926
-0.0193294
-0.0123637
-0.00579857
0.000282278
0.00581367
0.0107495
0.0150627
0.0187443
0.0218042
0.0242648
-0.0725009
-0.0727093
-0.0719805
-0.0705162
-0.0682513
-0.0650766
-0.0609608
-0.0559827
-0.0503195
-0.0441767
-0.0377551
-0.0312257
-0.024728
-0.0183787
-0.0122757
-0.00650108
-0.00112281
0.00380463
0.0082409
0.01216
0.0155503
0.0184155
0.0207727
-0.0648932
-0.065192
-0.0646281
-0.0634013
-0.0614033
-0.0585798
-0.0549291
-0.0504825
-0.0454363
-0.0399954
-0.0343344
-0.0285985
-0.0229001
-0.0173325
-0.0119736
-0.00688861
-0.00213223
0.00225095
0.00622662
0.00977115
0.0128718
0.01553
0.0177564
-0.0581183
-0.0585595
-0.058092
-0.0568257
-0.0544929
-0.0521312
-0.0494607
-0.0455417
-0.0410232
-0.0361846
-0.0311764
-0.0261225
-0.0211129
-0.0162211
-0.0115089
-0.00702899
-0.0028249
0.00106709
0.00461849
0.0078088
0.0106258
0.0130682
0.0151456
-0.0521484
-0.0526635
-0.0522866
-0.0507605
-0.0480363
-0.0460099
-0.0442219
-0.0409398
-0.0369776
-0.0326672
-0.0282272
-0.023768
-0.0193606
-0.0150614
-0.0109183
-0.00697354
-0.00326289
0.00018417
0.0033442
0.00620021
0.00874111
0.0109658
0.0128804
-0.0466681
-0.0473269
-0.0468096
-0.044669
-0.0426126
-0.0401667
-0.0367346
-0.0356418
-0.0332164
-0.0293721
-0.0254333
-0.0215014
-0.0176299
-0.0138594
-0.0102247
-0.0067596
-0.00349401
-0.000452767
0.00234486
0.00488498
0.00715817
0.00916266
0.0109072
-0.0416436
-0.0423523
-0.0416392
-0.0397835
-0.0374643
-0.0342615
-0.0296401
-0.0273356
-0.0296842
-0.0262191
-0.0227391
-0.019286
-0.0159022
-0.0126127
-0.00944081
-0.0064129
-0.00355426
-0.000886813
0.00157286
0.00381318
0.00582632
0.00761253
0.00917935
-0.0366639
-0.0374179
-0.0368258
-0.0352214
-0.0337757
-0.0313061
-0.025367
-0.0236503
-0.0261228
-0.0231468
-0.0200919
-0.0170877
-0.0141582
-0.0113152
-0.00857275
-0.00595068
-0.00347021
-0.00115159
0.000989797
0.00294389
0.00470447
0.00627426
0.0076599
-0.0317985
-0.0324216
-0.0323082
-0.0310818
-0.0312468
-0.0293274
-0.0216496
-0.0246697
-0.0226808
-0.0200897
-0.0174523
-0.0148827
-0.0123852
-0.00996325
-0.00762505
-0.00538546
-0.00326221
-0.00127378
0.000564507
0.00224312
0.00375856
0.00511462
0.00631484
-0.0268673
-0.0271279
-0.0275168
-0.0276524
-0.0270837
-0.025424
-0.0228205
-0.0212602
-0.0192504
-0.0170215
-0.0148104
-0.0126662
-0.0105832
-0.00856094
-0.00660584
-0.00472985
-0.00294784
-0.00127601
0.000270703
0.00168253
0.00295813
0.00410026
0.00511372
-0.021973
-0.0220023
-0.0224805
-0.0227352
-0.0220953
-0.0205886
-0.0191823
-0.0176311
-0.0158141
-0.0139597
-0.0121807
-0.0104522
-0.0087658
-0.00712269
-0.00553029
-0.00400021
-0.00254543
-0.00117936
8.47567e-05
0.00123663
0.00227574
0.0032057
0.00403009
-0.0171815
-0.0169067
-0.0174585
-0.0175225
-0.0168254
-0.0158141
-0.0149703
-0.0137326
-0.0123404
-0.0109438
-0.00959414
-0.00826696
-0.00695675
-0.00567107
-0.00442076
-0.00321839
-0.00207605
-0.00100505
-1.60566e-05
0.000881439
0.00168655
0.00240414
0.00304026
-0.0124823
-0.0122782
-0.0123834
-0.0121972
-0.0116478
-0.0112171
-0.0106518
-0.00984131
-0.00893698
-0.0079941
-0.00708857
-0.00613441
-0.00517858
-0.00423002
-0.00330241
-0.00240964
-0.00156396
-0.000775915
-5.42747e-05
0.000594277
0.00116785
0.00167563
0.00212375
-0.00765136
-0.00754752
-0.0073881
-0.00700573
-0.00673374
-0.00665104
-0.00641245
-0.00605752
-0.00563306
-0.00515316
-0.0046282
-0.00405045
-0.00344042
-0.00281678
-0.0021981
-0.0016002
-0.00103634
-0.000517908
-5.43014e-05
0.000348282
0.000693984
0.000992598
0.00125722
-0.00250014
-0.00252865
-0.00236184
-0.00222345
-0.00213091
-0.00219805
-0.00230132
-0.00238547
-0.00242111
-0.00237545
-0.00223729
-0.00201926
-0.00174713
-0.00144358
-0.00112917
-0.000820007
-0.000528873
-0.000266805
-4.4041e-05
0.000129113
0.00024598
0.000337714
0.000419789
1125.9
1041.66
1008.46
968.57
978.856
984.108
955.593
973.397
876.994
863.731
856.871
882.863
689.216
692.893
701.792
708.013
683.965
691.345
702.119
747.081
690.265
693.216
694.386
763.493
549.792
544.08
571.772
543.803
90.9765
106.272
140.143
154.806
14.6462
20.4491
18.3772
34.7715
0.261003
0.255133
0.247926
0.229731
0.239156
0.239102
0.235339
0.224393
0.222624
0.21202
0.203524
0.196051
0.207123
0.197014
0.186819
0.178436
0.185984
0.176504
0.168534
0.162139
0.165235
0.157551
0.148833
0.143783
0.139864
0.13555
0.131567
0.12721
0.121964
0.119407
0.116572
0.113028
0.106743
0.104838
0.10263
0.0997544
0.0930727
0.0916393
0.0898908
0.0876485
0.0809877
0.0801385
0.0789755
0.077515
0.0703709
0.0699764
0.0692991
0.0683362
0.0610535
0.0610248
0.0607406
0.0602184
0.0529209
0.0531742
0.0532033
0.0530162
0.0458455
0.0463066
0.0465676
0.0466417
0.0396964
0.0403047
0.0407383
0.0410078
0.0343557
0.0350638
0.0356171
0.0360291
0.0297157
0.0304835
0.0311176
0.0316278
0.0256838
0.0264808
0.0271598
0.0277324
0.0221729
0.0229731
0.0236726
0.0242783
0.0191106
0.0198956
0.0205919
0.021208
0.016432
0.0171853
0.017864
0.0184714
0.0140836
0.0147946
0.0154397
0.016024
0.012017
0.0126748
0.013277
0.013826
0.0101855
0.0107858
0.0113377
0.0118431
0.00855397
0.00908899
0.00958486
0.0100406
0.00709286
0.00755989
0.00799289
0.00839379
0.00577135
0.00616625
0.00653543
0.00687757
0.00456568
0.00488809
0.00518904
0.00547036
0.00345223
0.00370001
0.00393374
0.0041524
0.00241346
0.00258766
0.0027509
0.00290565
0.00142735
0.00152864
0.00162494
0.00171624
0.000470301
0.000498887
0.000523763
0.000548956
966.726
1019.82
965.462
905.787
934.887
963.649
980.039
987.125
1036.11
1069.19
1069.71
1071.18
1048.85
1040.45
969.378
914.256
890.748
970.785
979.749
992.663
924.306
817.502
819.241
816.941
829.613
839.918
859.967
938.856
997.847
1056.81
1028.56
926.902
849.064
799.071
804.02
805.535
792.967
788.12
873.396
753.434
744.184
771.426
803.704
769.093
779.404
818.19
775.825
792.686
826.5
829.669
817.617
828.262
785.606
845.034
853.142
750.458
751.304
703.764
700.987
709.564
713.528
712.212
685.202
826.585
828.569
825.569
770.558
834.635
840.995
766.554
728.731
775.975
785.005
828.483
724.64
722.185
734.055
706.059
705.204
707.377
706.124
698.064
716.562
675.601
680.34
686.487
731.508
729.165
700.686
695.219
687.521
685.495
662.949
741.23
714.471
776.921
711.927
704.504
705.173
706.592
707.883
704.348
707.447
700.518
703.89
696.612
699.521
695.23
689.49
685.667
690.738
558.422
767.914
705
613.179
690.583
695.937
706.519
709.799
718.743
719.529
718.684
711.778
700.051
690.752
685.693
663.92
620.571
552.269
528.169
571.06
551.326
666.124
182.21
225.731
290.597
346.854
361.682
354.798
333.939
306.056
306.909
308.897
275.187
239.218
192.045
134.78
107.118
117.544
221.282
183.152
189.791
46.4156
37.2566
32.8837
20.3652
22.0491
26.4784
39.8345
53.4017
51.9961
43.4979
33.4099
14.4495
6.11511
0.55336
0.328333
0.2555
0.281028
16.9159
19.7139
0.206474
0.195108
0.501105
4.54304
1.79198
0.392213
1.05293
3.17242
3.21642
1.51967
0.667854
0.121976
0.185871
0.286515
0.290131
0.238354
0.225028
0.170421
5.71852
0.19923
0.182463
0.153
0.12353
0.155438
0.333121
0.572105
0.72484
0.996805
0.967906
0.427134
0.14388
0.251566
0.327423
0.404255
0.320397
0.249608
0.162769
0.159745
0.200598
0.196972
0.164837
0.166795
0.378347
0.501245
0.498828
0.356261
0.212143
0.167034
0.160529
0.16131
0.145269
0.297152
0.29066
0.284329
0.230604
0.172551
0.167953
0.179759
0.192975
0.180851
0.180725
0.303969
0.391432
0.257387
0.0908071
0.0372772
0.0235339
0.0248922
0.0432327
0.0984506
0.355817
0.190691
0.206977
0.293864
0.39823
0.211061
0.167592
0.203645
0.194722
0.145176
0.176173
0.155451
0.0697463
0.0472199
0.0264627
0.0173046
0.023009
0.0402455
0.096759
0.427265
0.211695
0.271479
0.981286
1.01162
0.844902
0.166337
0.214032
0.207246
0.217302
0.156555
0.206662
0.195288
0.141796
0.0454142
0.0356316
0.0434144
0.0463307
0.0631146
0.414952
0.444793
0.439398
1.0042
1.00905
1.0088
0.126521
0.159608
0.205919
0.198101
0.146983
0.198346
0.257671
0.207671
0.181197
0.0764865
0.0543773
0.0455038
0.0545848
0.20696
0.472277
0.32548
0.932527
0.689569
0.703383
0.106975
0.0989292
0.0965471
0.0926953
0.108261
0.135434
0.259694
0.233702
0.205654
0.0948083
0.0679333
0.0620819
0.055646
0.112279
0.475788
0.278262
0.179065
0.158269
0.321186
0.0948935
0.0876998
0.0784624
0.0713371
0.0644927
0.102827
0.18539
0.255445
0.222219
0.154387
0.143312
0.0932225
0.0511938
0.0762777
0.468242
0.263277
0.144551
0.177476
0.178906
0.0839736
0.0790356
0.0724057
0.0665053
0.0716504
0.103796
0.133848
0.179361
0.187804
0.167235
0.137899
0.0636374
0.0503609
0.0737374
0.476792
0.272382
0.360441
0.286083
0.395438
0.0746338
0.0691958
0.0639357
0.0599432
0.0637074
0.0624667
0.0521434
0.0534572
0.0753968
0.0803835
0.0597331
0.04094
0.0474247
0.0779499
0.306176
0.174707
0.513905
0.431771
0.453976
0.0663046
0.0623402
0.0580883
0.0535432
0.0488353
0.0435439
0.0386431
0.0346551
0.0323048
0.0346872
0.0344485
0.0360929
0.039316
0.0583652
0.0496964
0.357326
0.496418
0.276397
0.358224
0.0589749
0.0563227
0.0529849
0.0493719
0.045475
0.0415107
0.0378237
0.0346662
0.0324552
0.031571
0.0316185
0.0330643
0.0352417
0.0345651
0.0336637
0.368007
0.20303
0.0774442
0.0409112
0.0523818
0.0506422
0.0482743
0.0455339
0.0425696
0.0396179
0.0368682
0.0344959
0.0327497
0.0317613
0.0315278
0.0320708
0.0329967
0.0324643
0.0317796
0.143348
0.0772435
0.0404767
0.0381592
0.0464817
0.0454756
0.0438919
0.0419144
0.0397177
0.0374881
0.0354297
0.0336836
0.032364
0.0315612
0.0312941
0.0315391
0.0319758
0.0320837
0.035038
0.0388029
0.0339346
0.0388134
0.0447284
0.0412094
0.0407795
0.0398276
0.0384903
0.0369417
0.0353305
0.0338076
0.0325046
0.0315349
0.0309494
0.0307773
0.0310204
0.0315426
0.0321545
0.0349003
0.0352242
0.0372719
0.0427762
0.0475001
0.0364984
0.0365094
0.0360291
0.0352321
0.0342094
0.0330986
0.0320246
0.0310934
0.030394
0.0299971
0.0299201
0.0302233
0.0308627
0.0319161
0.0338675
0.0353446
0.0381106
0.0417358
0.0455437
0.0322889
0.0326362
0.0325454
0.0321423
0.0315346
0.0308166
0.030096
0.0294606
0.0289861
0.0287417
0.0287183
0.0290599
0.0297265
0.0307831
0.0326339
0.0349596
0.0376132
0.0395653
0.0429587
0.0285222
0.0291149
0.029315
0.029221
0.028925
0.028519
0.0280764
0.027673
0.0273733
0.02723
0.0272843
0.0276032
0.0281981
0.0291043
0.0318362
0.0343437
0.035698
0.0368179
0.047201
0.0251457
0.0259079
0.0263192
0.0264596
0.0264061
0.0262324
0.0260054
0.0257844
0.0256229
0.0255683
0.0256613
0.0259523
0.0264749
0.0273565
0.0291795
0.0339449
0.0347538
0.0336642
0.047674
0.0221116
0.0229809
0.0235381
0.0238484
0.0239751
0.0239785
0.0239145
0.0238333
0.0237803
0.0237959
0.0239156
0.0241749
0.0246353
0.0254268
0.0265388
0.0306705
0.0384534
0.0354397
0.0441963
0.019378
0.0203029
0.0209521
0.0213787
0.0216345
0.0217684
0.021826
0.0218497
0.0218794
0.0219491
0.0220904
0.0223299
0.0227115
0.0234861
0.0278246
0.0329132
0.0358485
0.0363178
0.0421767
0.0169066
0.0178455
0.0185426
0.0190415
0.0193841
0.01961
0.0197561
0.0198572
0.0199469
0.0200581
0.0202159
0.0204401
0.0207729
0.0217683
0.0348612
0.0382618
0.0336108
0.0338866
0.0327393
0.0146637
0.015583
0.0162922
0.0168273
0.017222
0.0175081
0.0177149
0.0178705
0.0180026
0.0181414
0.0183104
0.0185252
0.0187915
0.0193864
0.0296664
0.0362009
0.0373703
0.0314337
0.0281305
0.012619
0.0134917
0.0141843
0.0147265
0.0151451
0.015465
0.0157093
0.0158998
0.0160589
0.0162119
0.0163879
0.0166084
0.01685
0.0171841
0.0192663
0.0342666
0.0349328
0.036313
0.0277935
0.0107447
0.0115503
0.0122037
0.0127296
0.013149
0.0134811
0.0137434
0.0139524
0.0141253
0.0142815
0.0144478
0.0146919
0.0149845
0.0152146
0.015679
0.0196916
0.0317198
0.0280164
0.0195025
0.00901597
0.00973895
0.0103358
0.0108268
0.0112283
0.0115545
0.0118185
0.0120323
0.012209
0.0123646
0.0125275
0.0127227
0.0130564
0.0133354
0.0134452
0.0137232
0.0150033
0.0154221
0.014152
0.00741108
0.00803974
0.00856684
0.00900809
0.00937631
0.00968162
0.00993313
0.0101396
0.0103103
0.010456
0.0105918
0.0107421
0.0109872
0.0113748
0.0115582
0.011475
0.0116362
0.0117014
0.0119023
0.00591055
0.0064358
0.00688266
0.00726257
0.00758483
0.00785636
0.00808339
0.00827188
0.00842808
0.00855922
0.00867469
0.00879018
0.00894374
0.00924949
0.00963311
0.00966091
0.00944859
0.0095485
0.00997904
0.00449614
0.0049111
0.00527011
0.00557878
0.00584403
0.00607065
0.00626267
0.00642395
0.0065583
0.00666991
0.00676536
0.00685849
0.00695704
0.00711759
0.00752736
0.00778629
0.0076836
0.0075479
0.00792332
0.00315043
0.00344971
0.00371705
0.00394454
0.00414268
0.00431483
0.00446289
0.00458894
0.00469449
0.00478006
0.00484815
0.00493308
0.00500354
0.00508689
0.00528658
0.00568071
0.00580256
0.0058071
0.0056624
0.00186098
0.00204262
0.00221653
0.0023468
0.00246975
0.00258013
0.00267679
0.00276056
0.00283096
0.00288172
0.00288906
0.00299239
0.00304327
0.0030791
0.00314158
0.00334364
0.00368579
0.00366868
0.00316104
0.00059066
0.000640827
0.000687026
0.000759123
0.000811855
0.000854956
0.000894068
0.000932103
0.000972888
0.00102583
0.0011045
0.00108138
0.00108243
0.0010694
0.00103261
0.00100734
0.00104054
0.00108151
0.000912736
)
;

boundaryField
{
    leftWall
    {
        type            fixedFluxPressure;
        gradient        uniform 0;
        value           nonuniform List<scalar> 
50
(
5272.75
5272.17
5272.66
5273.18
5160.69
2723.83
1394.6
1395.36
1395.43
1398.56
1403.58
1388.24
1204.05
888.411
873.925
899.709
926.618
933.773
952.021
428.646
-0.246647
-0.539581
-0.484707
-0.420693
-0.362918
-0.311731
-0.267295
-0.229774
-0.1983
-0.172001
-0.149933
-0.13131
-0.11554
-0.102167
-0.0907921
-0.0810711
-0.0725009
-0.0648932
-0.0581183
-0.0521484
-0.0466681
-0.0416436
-0.0366639
-0.0317985
-0.0268673
-0.021973
-0.0171815
-0.0124823
-0.00765136
-0.00250014
)
;
    }
    rightWall
    {
        type            fixedFluxPressure;
        gradient        uniform 0;
        value           nonuniform List<scalar> 
50
(
2916.97
2899.04
2270.24
1639.42
948.217
990.803
1015.9
1037.51
979.749
788.12
751.304
722.185
714.471
705
666.124
189.791
19.7139
5.71852
0.159745
0.167953
0.211061
0.844902
1.0088
0.703383
0.321186
0.178906
0.395438
0.453976
0.358224
0.0409112
0.0381592
0.0447284
0.0475001
0.0455437
0.0429587
0.047201
0.047674
0.0441963
0.0421767
0.0327393
0.0281305
0.0277935
0.0195025
0.014152
0.0119023
0.00997904
0.00792332
0.0056624
0.00316104
0.000912736
)
;
    }
    lowerWall
    {
        type            fixedFluxPressure;
        gradient        uniform 0;
        value           nonuniform List<scalar> 
62
(
5272.75
5271.09
5270.72
5274.22
5284.11
5302.31
5330.15
5368.57
5417.74
5476.68
5543.52
5616.95
5696.55
5782.77
5876.52
5978.54
6088.34
6203.47
6319.25
6428.74
6523.8
6595.67
6635.71
6635.71
6642.11
6654.34
6672.31
6696.85
6720.83
6708.08
5634.06
1125.9
1041.66
1008.46
968.57
2892.23
2885.75
2326.73
1164.98
976.942
1010.67
987
966.577
2892.23
2890.75
2871.9
2841.74
2822.5
2829.63
2865.51
2920.64
2981.04
3037.66
3073.64
3070.88
3027.6
2951.41
2883.41
2868.37
2887.19
2907.74
2916.97
)
;
    }
    atmosphere
    {
        type            totalPressure;
        rho             rho;
        psi             none;
        gamma           1;
        p0              uniform 0;
        value           nonuniform List<scalar> 
46
(
0
0
0
0
-2.88918e-06
-0.000182313
-0.000442734
-0.000711191
-0.000945894
-0.00108637
-0.00111845
-0.00106256
-0.000946364
-0.000795658
-0.000630114
-0.000464352
-0.000309135
-0.000173532
-6.77658e-05
-7.15186e-06
0
0
0
0
0
0
0
0
0
-4.58965e-07
-3.68916e-06
-6.93584e-06
-8.45281e-06
-7.88454e-06
-5.60443e-06
-2.48529e-06
-1.41692e-07
0
0
0
0
0
0
0
0
0
)
;
    }
    defaultFaces
    {
        type            empty;
    }
}


// ************************************************************************* //
