/*--------------------------------*- C++ -*----------------------------------*\
| =========                 |                                                 |
| \\      /  F ield         | OpenFOAM: The Open Source CFD Toolbox           |
|  \\    /   O peration     | Version:  2312                                  |
|   \\  /    A nd           | Website:  www.openfoam.com                      |
|    \\/     M anipulation  |                                                 |
\*---------------------------------------------------------------------------*/
FoamFile
{
    version     2.0;
    format      ascii;
    arch        "LSB;label=32;scalar=64";
    class       volScalarField;
    location    "0.75";
    object      alphas;
}
// * * * * * * * * * * * * * * * * * * * * * * * * * * * * * * * * * * * * * //

dimensions      [0 0 0 0 0 0 0];

internalField   nonuniform List<scalar> 
2268
(
2
2
2
2
2
2
2
2
2
2
2
2
2
2
2
2
2
2
2
2
2
1.99999
1.99993
2
2
2
2
2
2
2
2
2
2
2
2
2
2
2
2
2
2
2
2
2
1.99999
1.99993
1.8177
1.83321
1.84805
1.87589
1.91793
1.97465
2
2
2
2
2
2
2
2
2
2
2
2
2
2
2
2
1.99998
0.351354
0.375317
0.39975
0.452485
0.551169
0.743455
1.15575
1.72641
2
2
2
2
2
2
2
2
2
2
2
2
2
2
2
3.76021e-10
3.79686e-10
3.76697e-10
3.64386e-10
3.41903e-10
3.11464e-10
0.0302119
0.406844
1.54143
2
2
2
2
2
2
2
2
2
2
2
2
2
2
4.71917e-10
4.75793e-10
4.6516e-10
4.45706e-10
4.31642e-10
4.91657e-10
9.52928e-10
8.82147e-10
0.487724
1.799
2
2
2
2
2
2
2
2
2
2
2
1.99996
1.99987
5.86094e-10
5.85284e-10
5.67907e-10
5.43617e-10
5.11362e-10
4.84421e-10
5.58086e-10
2.69696e-09
0.0351329
1.1511
1.99925
2
2
2
2
2
1.99645
1.98867
1.98667
1.99181
1.99726
1.99897
1.99987
7.00863e-10
7.00529e-10
6.80097e-10
6.61786e-10
6.27067e-10
5.7888e-10
5.33335e-10
6.68654e-10
4.97816e-10
0.37816
1.71836
2
1.97323
1.8548
1.6291
1.43818
1.28692
1.18501
1.16747
1.22341
1.30852
1.35509
1.46001
1.45871
1.40581
1.30314
1.23673
1.43941
1.85022
1.95265
1.89145
1.85505
1.84932
1.84481
1.94414
1.92884
1.75638
1.78994
1.56893
1.39804
1.3767
1.35351
1.46029
1.10234
1.09813
1.17049
1.23462
1.73783
1.92363
1.91078
1.91038
1.89733
1.84959
1.86525
1.88663
1.68444
1.79223
1.28278
1.16348
1.15359
1.06989
1.1466
1.15884
1.15431
1.19082
1.11044
1.05064
1.1283
1.40146
1.4124
1.1134
0.843465
1.04686
1.75912
1.65228
1.5059
1.14234
1.28825
1.15986
1.06068
1.07133
1.20882
0.77029
0.377113
0.199302
0.104461
0.107881
0.131669
0.146565
0.172635
0.318844
0.705046
1.66685
1.9175
1.23231
1.28313
1.67791
1.26692
1.08673
0.940947
0.558762
0.192936
0.0108579
0.011084
0.0125981
0.0141446
0.0147932
0.127028
0.69559
0.91072
1.02102
1.4431
2.07088
1.19633
1.39549
2.03925
1.70005
1.27247
0.598027
0.252002
0.0203309
0.0197542
0.00749412
0.00762925
0.0135026
0.0153734
0.729554
1.00553
1.00146
1.12742
1.20101
2.07569
1.20882
1.68616
2.64391
2.28789
1.31053
0.550698
0.241931
0.374259
0.31915
0.14448
0.0104757
0.0109222
0.0656149
0.958598
1.01269
1.06343
1.73683
1.98278
1.81631
1.24525
2.3459
2.96753
2.12773
1.30097
0.623316
0.885744
1.6876
1.2516
0.542314
0.0752633
0.00717709
0.0434257
0.794204
0.960047
1.1339
2.0109
2.22455
1.2687
1.2585
2.91581
2.96765
1.79673
1.19839
8.25093e-10
8.16691e-10
7.90387e-10
7.84812e-10
7.55458e-10
7.26473e-10
6.72674e-10
6.73005e-10
2.23537e-09
0.00204359
0.280871
0.852362
0.926397
0.601787
0.33961
0.235523
0.178444
0.142708
0.137927
0.160681
0.196931
0.213147
0.261196
9.30005e-10
9.23426e-10
9.13631e-10
9.17291e-10
8.92548e-10
8.27812e-10
7.4204e-10
6.25757e-10
6.70016e-10
4.7944e-10
3.78949e-10
4.79718e-10
2.08755e-10
2.5379e-06
0.00030809
0.000513238
0.000666378
0.000779934
0.00220462
0.00553742
0.0103017
0.0135121
0.0220031
8.20047e-10
8.27679e-10
7.9607e-10
7.04028e-10
9.04498e-10
3.15212e-10
7.03811e-09
1.08083e-12
6.54092e-12
4.53056e-11
3.29818e-11
4.70222e-11
6.27881e-10
0.000234919
0.0223949
0.0681681
0.126035
0.226255
0.342368
0.439768
0.480129
0.443123
0.405397
6.94852e-10
1.73252e-08
2.88327e-07
1.41055e-06
1.75314e-06
1.31048e-06
2.14792e-08
4.41924e-06
0.0258953
0.0495733
0.0217996
0.0272247
0.109134
0.358091
0.838954
1.22751
1.57217
1.83098
1.9784
2.02304
1.94883
1.31821
0.959243
5.26935e-09
3.6721e-08
1.90228e-07
4.39344e-07
0.0980865
0.518272
0.674099
0.670694
0.532043
0.60211
0.709368
1.00221
1.4009
1.91485
2.23994
2.48796
2.6599
2.76978
2.74091
2.6293
1.62194
1.00512
0.998592
0.0681717
0.414541
0.69873
0.922313
1.24139
1.27501
1.34859
1.38986
1.36366
1.42765
1.85184
2.33879
2.7727
2.98506
3
3
3
2.99996
2.95285
1.82687
1.11239
1.13638
1.63299
1.49958
2.28752
2.50839
2.61806
2.51804
2.5
2.67098
2.74819
2.85852
2.97753
3
2.99999
2.99999
2.99999
2.99999
2.99999
3
3
2.96612
1.82796
1.11713
1.7568
2.96192
2.93506
2.90916
2.90852
2.90363
2.92379
2.99999
3
2.99999
2.99999
3
3
3
3
3
2.99999
2.99999
2.99999
3
2.98465
2.6009
2.35796
2.73655
2.99998
2.94688
2.95082
2.9939
2.99993
3
3
2.99999
2.99999
3
3
3
3
3
3
3
3
3
2.99998
2.99925
3
3
3
2.99997
2.95092
2.99801
3
3
3
3
3
3
3
3
3
3
3
3
3
3
3
2.99999
2.99998
3
3
3
2.99999
2.98169
2.99984
2.99978
2.99999
3
3
3
3
3
3
3
3
3
3
3
3
3
2.99999
2.99997
3
3
3
3
3
2.99984
2.99966
2.99996
3
3
3
3
3
3
3
3
3
3
3
3
3
3
2.99997
2.99993
2.99996
3
3
3
2.99995
2.99987
2.99998
2.99999
2.99999
3
3
3
3
3
3
3
3
3
3
3
3
2.99999
2.99992
2.99992
3
3
3
3
3
3
3
3
3
3
3
3
3
3
3
3
3
3
3
3
3
2.99999
2.99993
2.9999
2.99998
3
3
3
3
3
3
3
3
3
3
3
3
3
3
3
3
3
3
3
3
2.99999
2.99982
2.99982
3
3
3
3
3
3
3
3
3
3
3
3
3
3
3
3
3
3
3
3
2.99999
2.99989
2.99982
3
3
3
3
3
3
3
3
3
3
3
3
3
3
3
3
3
3
3
3
2.99998
2.99999
2.99994
3
3
3
3
3
3
3
3
3
3
3
3
3
3
3
3
3
3
3
3
3
3
3
3
3
3
3
3
3
3
3
3
3
3
3
3
3
3
3
3
3
3
3
3
3
3
3
3
3
3
3
3
3
3
3
3
3
3
3
3
3
3
3
3
3
3
3
3
3
3
3
3
3
3
3
3
3
3
3
3
3
3
3
3
3
3
3
3
3
3
3
3
3
3
3
3
3
3
3
3
3
3
3
3
3
3
3
3
3
3
3
3
3
3
3
3
3
3
3
3
3
3
3
3
3
3
3
3
3
3
3
3
3
3
3
3
3
3
3
3
3
3
3
3
3
3
3
3
3
3
3
3
3
3
3
3
3
3
3
3
3
3
3
3
3
3
3
3
3
3
3
3
3
3
3
3
3
3
3
3
3
3
3
3
3
3
3
3
3
3
3
3
3
3
3
3
3
3
3
3
3
3
3
3
3
3
3
3
3
3
3
3
3
3
3
3
3
3
3
3
3
3
3
3
3
3
3
3
3
3
3
3
3
3
3
3
3
3
3
3
3
3
3
3
3
3
3
3
3
3
3
3
3
3
3
3
3
3
3
3
3
3
3
3
3
3
3
3
3
3
3
3
3
3
3
3
3
3
3
3
3
3
3
3
3
3
3
3
3
3
3
3
3
3
3
3
3
3
3
3
3
3
3
3
3
3
3
3
3
3
3
3
3
3
3
3
3
3
3
3
3
3
3
3
3
3
3
3
3
3
3
3
3
3
3
3
3
3
3
3
3
3
3
3
3
3
3
3
3
3
3
3
3
3
3
3
3
3
3
3
3
3
3
3
3
3
3
3
3
3
3
3
3
3
3
3
3
3
3
3
3
3
3
3
3
3
3
3
3
3
3
3
3
3
3
3
3
3
3
3
3
3
3
3
3
3
3
3
3
3
3
3
3
3
3
3
3
3
3
3
3
3
3
3
3
3
3
3
3
3
3
3
3
3
3
3
3
3
3
3
3
3
3
3
3
3
3
3
3
3
3
3
3
3
3
3
3
3
3
3
3
3
3
3
3
3
3
3
3
3
3
3
3
3
3
3
3
3
3
3
3
3
3
3
3
3
3
3
3
3
3
3
3
3
3
3
3
3
3
3
3
3
3
3
3
3
3
3
3
3
3
3
3
3
3
3
3
3
3
3
3
3
3
3
3
3
3
3
3
3
3
3
3
3
3
3
3
3
3
3
3
3
3
3
3
3
3
3
3
3
3
3
3
3
3
3
3
3
3
3
3
3
3
3
3
3
3
3
3
3
3
3
3
3
3
0.419195
0.472829
0.630515
0.712578
0.0714214
0.262189
0.55443
0.859703
1.4239
2.17269
2.17552
1.69169
1.09325
1.09035
1.00682
1
0.999988
1
1
1
1.38446
1.08284
1.19077
1.12713
2.98135
2.9889
2.84511
2.2827
3
3
3
3
2.99996
2.99998
3
3
2.99996
2.99996
2.99998
3
2.99999
2.99997
2.99997
2.99999
3
3
2.99998
2.99999
3
3
3
3
3
3
3
3
2.99988
2.99982
2.99982
2.99993
2.99982
2.99988
2.99996
2.99984
2.99995
2.99999
3
2.99996
3
3
3
3
3
3
3
3
3
3
3
3
3
3
3
3
3
3
3
3
3
3
3
3
3
3
3
3
3
3
3
3
3
3
3
3
3
3
3
3
3
3
3
3
3
3
3
3
3
3
3
3
3
3
3
3
3
3
3
3
3
3
3
3
3
3
3
3
3
3
3
3
3
3
3
3
3
3
3
3
3
3
3
3
3
3
3
3
3
3
3
3
3
3
3
3
3
3
3
3
1.19759
2.0312
2.12343
2.18313
1.70151
0.482995
0.0322811
0.0176754
0.0938687
0.228096
0.980407
1.69141
2.32016
2.21389
2.5449
2.9681
2.96812
1.73558
1.06225
1.94801
1.88663
2.13354
2.27077
2.07735
1.69156
0.46327
0.0601541
0.0371841
0.0478707
0.19072
1.20928
1.85092
2.23468
2.38685
2.5194
1.72969
1.42693
0.940145
1.02615
1
1.19021
2.23888
2.62893
2.19605
1.48529
0.478343
0.270044
0.327429
0.353506
0.541882
0.862242
1.29526
1.55971
1.50078
1.19245
1.09048
0.765548
1
1
0.999999
1.48359
2.76084
2.93579
2.57027
1.80323
1.08105
0.791605
0.675954
0.88226
0.571949
0.467693
0.453339
0.453682
0.572096
0.773502
0.527031
1
1
1
1.02347
2.07078
2.98431
2.98502
2.85158
2.47408
1.97723
1.71257
1.73389
1.7296
1.13113
0.562776
0.420212
0.246576
0.353035
0.310726
1.0089
1
1
1
1.13986
2.37632
2.99824
2.99821
2.98924
2.47484
1.77453
1.51423
1.50892
1.54337
1.34091
0.842643
0.213
0.152363
0.408597
1.57262
1.01115
1
1
1.00002
1.02521
2.04344
2.84854
2.99813
2.99759
2.5542
1.75549
1.32302
1.07984
1.20585
1.17999
0.266071
0.157863
0.768252
2.96948
1.91388
1.01568
1
1
1.00001
1.0001
1.28652
2.30873
2.73259
2.86904
2.87178
2.2579
1.07873
1.00001
1.04711
0.341919
0.160187
0.774375
3
3
2.07753
1.07822
1
1
1
1.00006
1.00008
1.09048
1.43476
1.53177
1.4898
1.15216
1.00001
1.00025
0.519215
0.137836
1.15145
3
3
3
2.27434
1.17396
1
1
1
1
1.00003
1.00003
1.00003
1.00005
1.00005
1.00001
1.00004
0.835671
0.163674
1.28255
3
3
3
3
2.49494
1.33922
1
1
1
1.00025
1.00451
1.00935
1.00468
1.00006
1
0.999974
0.9209
0.1367
1.00028
3
2.99999
3
3
3
2.73806
1.57983
1
1
1
1.01437
1.03868
1.03873
1.006
1
0.999973
0.943504
0.635036
1.00037
3
2.99999
3
3
3
3
2.94135
1.93395
1.11717
1
1.00359
1.02967
1.03861
1.03327
1.00056
0.999564
0.998021
0.998057
1.00502
3
3
3
3
3
3
3
3
2.4741
1.49312
1.04183
1.02479
1.0249
1.0284
1.00508
1.00525
1.01564
1.04412
1.1025
3
2.99999
2.99999
3
3
3
3
3
3
2.94246
2.15324
1.33723
1.02813
1.01019
1.00647
1.00896
1.08744
1.13382
1.13376
2.99937
2.99932
2.99962
3
3
3
3
3
3
3
3
2.8206
2.01304
1.34115
1.13895
1.1105
1.16955
1.20812
1.21447
2.99932
2.99932
2.99948
2.99998
3
3
3
3
3
3
3
3
3
2.79949
2.52098
2.45755
2.47401
2.47221
2.49805
2.9998
2.99963
2.99984
3
3
3
3
3
3
3
3
3
3
3
3
3
3
3
3
3
3
3
3
3
3
3
3
3
3
3
3
3
3
2.99985
2.99946
2.99952
2.99964
3
3
3
3
3
3
3
3
3
3
3
3
3
2.99999
2.99999
2.99979
2.99817
2.99812
2.99663
2.87362
3
3
3
3
3
3
3
3
3
3
3
3
3
2.99999
2.99992
2.99996
3
3
2.07315
3
3
3
3
3
3
3
3
3
3
3
3
3
3
3
2.99993
2.99847
3
1.95547
3
3
3
3
3
3
3
3
3
3
3
3
3
3
3
3
2.96689
3
1.95552
3
3
3
3
3
3
3
3
3
3
3
3
3
3
3
3
2.95968
3
1.95547
3
3
3
3
3
3
3
3
3
3
3
3
3
3
3
3
2.96127
3
1.99995
3
3
3
3
3
3
3
3
3
3
3
3
3
3
3
3
2.99735
2.99413
2.81197
3
3
3
3
3
3
3
3
3
3
3
3
3
3
3
2.99892
2.99897
2.99199
2.9992
3
3
3
3
3
3
3
3
3
3
3
3
3
3
3
2.99235
2.99827
2.99145
2.9992
3
3
3
3
3
3
3
3
3
3
3
3
3
3
3
2.99234
2.99253
2.99147
2.99889
3
3
3
3
3
3
3
3
3
3
3
3
3
3
3
2.99527
2.99382
2.99527
2.99883
3
3
3
3
3
3
3
3
3
3
3
3
3
3
3
3
3
3
2.99974
3
3
3
3
3
3
3
3
3
3
3
3
3
3
3
3
3
3
3
3
3
3
3
3
3
3
3
3
3
3
3
3
3
3
3
3
3
3
3
3
3
3
3
3
3
3
3
3
3
3
3
3
3
3
3
3
3
3
3
3
3
3
3
3
3
3
3
3
3
3
3
3
3
3
3
3
3
3
3
3
3
3
3
3
3
3
3
3
3
3
3
3
3
3
3
3
3
3
3
3
3
3
3
3
3
3
3
3
3
3
3
3
3
3
3
3
3
3
3
3
3
3
3
3
3
3
3
3
3
3
3
3
3
3
3
3
3
3
3
3
3
3
3
3
3
3
3
3
3
3
3
3
3
3
3
3
3
3
3
3
3
3
3
3
3
3
3
3
3
3
3
3
3
3
3
3
3
3
3
3
3
3
3
3
3
3
3
3
3
3
3
3
3
3
3
3
3
3
3
3
3
3
3
3
3
3
3
3
3
)
;

boundaryField
{
    leftWall
    {
        type            calculated;
        value           nonuniform List<scalar> 
50
(
2
2
1.8177
0.351354
3.76021e-10
4.71917e-10
5.86094e-10
7.00863e-10
8.25093e-10
9.30005e-10
8.20047e-10
6.94852e-10
5.26935e-09
0.0681717
1.49958
2.93506
2.94688
2.95092
2.98169
3
3
3
3
3
3
3
3
3
3
3
3
3
3
3
3
3
3
3
3
3
3
3
3
3
3
3
3
3
3
3
)
;
    }
    rightWall
    {
        type            calculated;
        value           nonuniform List<scalar> 
50
(
1.35351
1.06989
1.06068
1.08673
1.27247
1.31053
1.30097
1.19839
1.06225
0.940145
0.765548
0.527031
0.310726
0.408597
0.768252
0.774375
1.15145
1.28255
1.00028
1.00037
1.00502
1.1025
1.13376
1.21447
2.49805
3
3
2.87362
2.07315
1.95547
1.95552
1.95547
1.99995
2.81197
2.9992
2.9992
2.99889
2.99883
2.99974
3
3
3
3
3
3
3
3
3
3
3
)
;
    }
    lowerWall
    {
        type            calculated;
        value           nonuniform List<scalar> 
62
(
2
2
2
2
2
2
2
2
2
2
2
2
2
2
2
2
2
2
2
2
2
1.99999
1.99993
1.99993
1.99993
1.99998
2
2
1.99987
1.99987
1.46001
0.419195
0.472829
0.630515
0.712578
1.45871
1.46029
1.1466
1.07133
0.940947
0.598027
0.550698
0.623316
1.45871
1.40581
1.30314
1.23673
1.43941
1.85022
1.95265
1.89145
1.85505
1.84932
1.84481
1.94414
1.92884
1.75638
1.78994
1.56893
1.39804
1.3767
1.35351
)
;
    }
    atmosphere
    {
        type            calculated;
        value           nonuniform List<scalar> 
46
(
3
3
3
3
3
3
3
3
3
3
3
3
3
3
3
3
3
3
3
3
3
3
3
3
3
3
3
3
3
3
3
3
3
3
3
3
3
3
3
3
3
3
3
3
3
3
)
;
    }
    defaultFaces
    {
        type            empty;
    }
}


// ************************************************************************* //
