/*--------------------------------*- C++ -*----------------------------------*\
| =========                 |                                                 |
| \\      /  F ield         | OpenFOAM: The Open Source CFD Toolbox           |
|  \\    /   O peration     | Version:  2312                                  |
|   \\  /    A nd           | Website:  www.openfoam.com                      |
|    \\/     M anipulation  |                                                 |
\*---------------------------------------------------------------------------*/
FoamFile
{
    version     2.0;
    format      ascii;
    arch        "LSB;label=32;scalar=64";
    class       volScalarField;
    location    "0.75";
    object      alpha.oil;
}
// * * * * * * * * * * * * * * * * * * * * * * * * * * * * * * * * * * * * * //

dimensions      [0 0 0 0 0 0 0];

internalField   nonuniform List<scalar> 
2268
(
1.931e-23
9.8117e-24
3.33458e-23
1.27734e-22
3.40139e-22
8.26616e-22
2.04864e-21
3.81979e-21
4.79367e-21
6.54085e-21
3.62766e-20
8.16708e-17
1.76479e-14
2.15638e-13
7.9134e-13
2.92572e-12
9.92531e-12
3.3298e-11
8.30166e-11
1.25254e-10
1.25209e-10
9.83384e-06
7.30324e-05
8.52352e-22
2.57678e-22
1.07696e-21
3.02316e-21
6.5282e-21
1.20175e-20
2.19452e-20
3.235e-20
3.61382e-20
6.02612e-20
2.40225e-19
3.48725e-16
5.60847e-14
9.01436e-13
2.75645e-12
8.47262e-12
3.21005e-11
1.03702e-10
1.97187e-10
1.87723e-10
1.24811e-10
1.05078e-05
7.30318e-05
1.57936e-19
4.96039e-20
2.62423e-19
8.71567e-19
2.88657e-18
5.54923e-18
3.55957e-18
1.38766e-18
1.18823e-17
3.53659e-16
3.59958e-15
5.1159e-14
2.64559e-13
1.08992e-12
3.50857e-12
1.27721e-11
4.27284e-11
1.51429e-10
6.22905e-10
1.31029e-09
1.24851e-10
3.27621e-06
1.92205e-05
2.10652e-18
6.55157e-19
6.06984e-18
4.5086e-17
2.14399e-16
4.18345e-16
3.58685e-16
1.40666e-16
4.91037e-17
3.15817e-16
8.4137e-15
7.57649e-14
4.22111e-13
2.25381e-12
9.3119e-12
2.95929e-11
8.03914e-11
2.1967e-10
3.13168e-09
2.37843e-08
4.1338e-08
1.48347e-08
1.50811e-08
5.20006e-18
1.56354e-18
2.61849e-17
3.31076e-16
1.69631e-15
3.0618e-15
2.53884e-15
1.392e-15
1.4295e-15
1.56266e-15
2.1265e-14
5.27826e-13
2.41502e-12
1.44579e-11
4.92572e-11
1.02295e-10
2.33954e-10
7.79041e-10
3.08594e-09
2.63429e-08
2.23895e-07
3.52528e-06
4.93327e-06
1.05177e-17
3.73471e-18
1.304e-16
2.27097e-15
8.662e-15
1.2786e-14
1.47848e-14
1.78359e-14
1.35497e-14
1.00942e-14
7.09661e-14
4.69856e-12
3.36018e-11
1.70735e-10
4.134e-10
4.3056e-10
6.36768e-10
2.89553e-09
5.96964e-09
7.29456e-09
2.67114e-07
4.13538e-05
0.000127302
2.12259e-17
7.68368e-18
5.53947e-16
9.18935e-15
3.05758e-14
4.77937e-14
7.96079e-14
1.06495e-13
7.8121e-14
9.30488e-13
2.96513e-11
1.45891e-10
5.93077e-10
9.65706e-10
8.882e-10
5.86809e-10
5.41133e-10
5.45699e-10
1.3122e-09
1.98025e-10
1.2487e-07
3.76951e-05
0.000128666
3.97018e-17
1.76999e-17
2.27066e-15
3.67041e-14
1.03595e-13
1.30751e-13
1.67346e-13
2.64255e-13
3.18921e-13
1.5088e-11
3.36073e-10
1.4042e-09
2.95757e-09
1.44077e-08
1.98025e-10
1.98197e-10
1.98025e-10
1.23936e-06
1.98025e-10
1.98197e-10
1.98025e-10
1.98197e-10
1.98025e-10
0.564689
0.604963
0.697501
0.76752
0.563557
0.153482
0.051413
0.121284
0.168634
0.168846
0.165955
0.0572026
0.0575436
0.33611
0.413753
0.502199
0.557809
0.561686
0.585359
0.564153
0.902999
0.903548
0.785298
0.663284
0.20107
0.0130619
0.000223286
-3.56746e-23
-1.53917e-12
2.54599e-22
1.1021e-07
0.0282259
0.363392
0.411637
0.715975
0.722934
0.691365
0.747161
0.877851
0.849861
0.460419
0.0829558
0.00389955
0.0115239
0.00910371
0.000454143
1.85057e-19
-2.05562e-20
0.0756574
0.077989
0.0290015
0.3967
0.585626
0.819557
0.765228
0.738953
0.747206
0.949575
0.477526
0.0597039
1.9814e-08
-3.639e-20
9.56418e-20
4.52888e-23
-2.56491e-13
0.00284228
0.0406881
0.288375
0.394239
0.163043
0.303272
0.823092
0.820345
0.644115
0.748692
0.748693
0.503852
0.0789415
0.00357518
0.00348393
0.00325829
0.00174373
0.000197381
1.25685e-06
0.0875905
0.662745
0.900197
0.821349
0.471521
0.297365
0.870701
0.802152
0.480375
0.635628
0.748696
0.000806971
0.000881925
0.0203404
0.0197582
0.00747985
0.00671703
0.000839486
1.21315e-06
0.614344
0.995545
0.995369
0.860688
0.783154
0.297221
0.870806
0.656922
0.178046
0.351563
0.748695
0.000823874
0.041099
0.217462
0.297316
0.144358
0.0104753
0.00341993
0.0381453
0.814354
0.990184
0.966963
0.564061
0.418162
0.50002
0.871125
0.327051
0.015979
0.436025
0.732852
0.0335069
0.0979379
0.299838
0.396458
0.39697
0.0752633
0.0071649
0.0231375
0.630458
0.800887
0.918147
0.452972
0.298472
0.860351
0.870725
0.0420831
0.0158863
0.601635
0.617328
8.14635e-17
6.80084e-17
8.34268e-15
1.10803e-13
3.00049e-13
3.45076e-13
3.24913e-13
5.06459e-13
8.48019e-13
6.7359e-12
1.23613e-10
2.61628e-10
1.36145e-11
4.70257e-07
5.47607e-05
0.000145174
0.000258424
0.000394895
0.000576416
0.00100211
0.00178519
0.00315969
0.005755
1.13604e-15
9.4213e-15
2.91467e-14
2.76959e-14
2.54776e-14
2.53985e-14
5.35425e-13
1.76108e-12
2.88791e-12
3.37809e-12
8.98367e-12
1.42083e-11
1.4953e-11
2.53781e-06
0.00030809
0.000513238
0.000662822
0.000777481
0.00220462
0.00553742
0.0103017
0.0135121
0.0137335
-1.25727e-20
1.71709e-18
5.06649e-31
4.36427e-12
4.48197e-10
1.04331e-10
7.03806e-09
9.61275e-13
1.8064e-12
2.00183e-12
1.48226e-12
1.63629e-11
6.28198e-10
0.000234885
0.0223948
0.068168
0.12068
0.169999
0.214212
0.244616
0.259408
0.244994
0.228313
5.02613e-10
1.71372e-08
2.88183e-07
1.41048e-06
1.75314e-06
1.31048e-06
5.9637e-11
2.19376e-30
4.79562e-31
-8.31277e-16
2.47158e-26
0.017239
0.107151
0.245529
0.342078
0.389776
0.397698
0.397724
0.39771
0.390191
0.328558
0.606682
0.958845
5.26935e-09
3.6721e-08
1.90228e-07
4.39344e-07
1.09248e-07
1.06686e-07
0.0839016
0.276853
0.495536
0.551926
0.613786
0.657556
0.656541
0.534937
0.38003
0.256021
0.170048
0.115112
0.129546
0.185348
0.688822
0.997341
0.998587
1.23899e-09
1.20362e-09
1.20313e-09
1.20526e-09
0.244091
0.666964
0.728592
0.754313
0.759676
0.759618
0.571552
0.330607
0.113651
0.00746908
7.10012e-07
1.81835e-08
5.27393e-07
1.84044e-05
0.0235746
0.586564
0.943805
0.931636
0.683071
1.23014e-09
0.0202101
0.0486362
0.0924454
0.223915
0.24974
0.164221
0.125904
0.0707413
0.0112369
-1.91822e-13
-6.05236e-28
2.57699e-21
1.39849e-15
1.44128e-08
8.72529e-08
1.24906e-07
9.40105e-07
0.016942
0.586018
0.941426
0.621573
0.0190385
0.0200611
0.0454179
0.0457397
0.0481853
0.0381051
2.77642e-06
2.04676e-06
2.98315e-08
2.70577e-13
2.91004e-13
2.47473e-08
2.58281e-09
1.72769e-09
4.72773e-09
1.67513e-07
4.03327e-07
8.05921e-07
9.56296e-07
0.00767545
0.199552
0.321015
0.131715
3.80399e-09
0.0245668
0.0245922
0.00305193
3.69445e-05
2.8209e-07
2.20784e-06
2.39998e-06
2.3028e-06
1.54766e-06
5.9114e-08
9.87398e-08
2.01341e-09
3.80229e-09
6.99594e-09
1.40315e-08
6.59023e-08
9.02282e-07
9.38432e-06
0.000373377
-8.67716e-10
-1.55256e-18
1.52831e-10
4.71768e-08
0.0245407
0.000997421
3.51519e-07
3.02248e-07
2.51849e-07
1.40489e-06
1.39493e-06
2.65969e-07
2.05376e-07
5.10196e-07
1.61894e-07
1.93752e-09
1.93964e-09
2.84829e-09
5.80741e-09
3.53471e-09
1.87201e-07
6.21686e-06
9.18636e-06
8.12459e-08
2.12763e-15
1.49086e-11
9.60588e-09
0.00915496
7.91555e-05
0.000108732
5.86316e-06
1.43449e-08
1.24292e-08
1.52873e-08
1.54962e-09
1.5497e-09
1.55048e-09
1.5593e-09
1.93413e-08
2.11212e-09
7.56652e-10
1.47611e-09
2.88825e-09
2.91608e-09
4.10188e-06
1.33792e-05
1.44162e-06
1.80361e-07
1.66088e-08
1.19478e-09
2.65485e-07
7.97063e-05
0.000168055
2.231e-05
4.53377e-08
1.63603e-06
7.71854e-08
1.54968e-09
2.09266e-09
1.14873e-09
3.52972e-10
5.56867e-10
5.11779e-10
6.44846e-10
1.15649e-09
2.4546e-09
2.82776e-09
4.34078e-07
1.30945e-05
3.68876e-05
2.23557e-05
7.01961e-07
3.48019e-08
9.33943e-08
2.58952e-05
6.29129e-05
8.82069e-06
2.56592e-06
2.94137e-06
6.82836e-07
1.62259e-09
1.7033e-09
1.3446e-09
6.92031e-10
2.79898e-10
2.40501e-10
5.37802e-10
1.32287e-09
2.51119e-09
4.16858e-09
4.1679e-09
3.07236e-06
4.08478e-05
4.03395e-05
2.73759e-07
2.60008e-08
3.43958e-08
1.34203e-08
1.34083e-08
1.26924e-07
2.29811e-06
2.27599e-06
3.15434e-07
1.39601e-09
7.08279e-10
5.28121e-10
3.69935e-10
2.30541e-10
1.78938e-10
4.83591e-10
1.43124e-09
2.676e-09
3.49604e-09
7.74207e-09
2.7465e-08
7.35767e-06
3.7463e-05
4.85844e-05
1.19273e-05
9.87593e-08
1.44281e-08
1.34336e-08
6.45591e-08
7.13891e-07
4.97762e-07
6.05414e-08
6.90749e-10
3.89341e-10
2.30986e-10
1.36316e-10
7.96632e-11
9.84956e-11
4.00375e-10
1.38043e-09
2.79968e-09
3.38574e-09
5.18036e-09
8.68369e-09
3.45073e-08
7.42954e-06
9.19086e-05
9.16515e-05
1.74118e-07
9.33268e-08
2.5777e-08
1.13198e-07
6.19972e-08
9.65187e-09
3.11381e-09
5.72023e-10
1.73867e-10
4.49352e-11
1.54818e-11
1.29688e-11
5.80586e-11
3.43071e-10
1.25758e-09
2.78709e-09
3.87153e-09
5.41906e-09
1.4778e-08
1.93749e-07
6.53224e-06
5.65965e-05
9.20702e-05
1.74137e-07
9.13199e-08
2.15989e-08
4.77172e-08
1.42144e-08
2.21979e-09
7.49215e-10
2.32348e-10
5.55993e-11
1.09679e-11
2.82467e-12
5.74752e-12
4.41409e-11
2.97239e-10
1.1216e-09
2.51401e-09
4.47279e-09
1.03162e-08
3.96762e-08
1.53842e-06
8.59531e-06
3.51422e-06
3.07756e-05
1.09187e-07
3.0274e-08
1.02359e-08
8.50764e-09
2.7415e-09
9.01001e-10
2.89401e-10
7.78303e-11
1.65225e-11
2.88995e-12
1.12148e-12
4.76779e-12
3.45382e-11
2.4339e-10
9.3063e-10
2.09194e-09
3.8052e-09
1.03605e-08
8.62089e-08
7.69859e-07
1.41494e-06
1.98863e-08
1.51812e-07
1.0086e-08
3.75122e-09
4.02913e-09
1.79844e-09
8.22611e-10
3.31928e-10
8.85798e-11
2.27279e-11
4.42419e-12
7.63348e-13
7.27416e-13
3.9199e-12
2.57124e-11
1.79616e-10
6.93156e-10
1.56725e-09
2.49454e-09
5.48799e-09
2.81834e-08
1.84637e-08
2.56569e-08
5.98025e-09
2.04502e-08
2.11252e-09
1.17517e-09
1.28299e-09
5.83811e-10
2.60346e-10
9.22567e-11
2.4772e-11
5.54242e-12
1.02949e-12
2.24675e-13
5.38759e-13
2.96187e-12
1.75747e-11
1.15992e-10
4.41594e-10
1.02866e-09
1.61284e-09
2.15769e-09
3.68966e-09
4.32883e-09
3.37094e-09
1.92292e-09
5.76693e-09
2.95619e-10
2.53882e-10
2.87791e-10
1.59281e-10
6.71696e-11
2.22036e-11
5.80445e-12
1.20155e-12
2.13631e-13
8.94241e-14
3.83104e-13
2.00886e-12
1.08097e-11
6.27269e-11
2.30445e-10
5.55434e-10
9.04634e-10
1.09084e-09
8.85212e-10
9.18654e-10
8.04455e-10
9.04602e-10
1.90242e-09
8.20496e-11
6.32416e-11
6.99979e-11
3.64822e-11
1.53476e-11
4.80066e-12
1.17882e-12
2.32006e-13
4.0577e-14
4.58118e-14
2.41971e-13
1.18993e-12
5.85724e-12
2.85658e-11
9.82007e-11
2.42453e-10
4.27687e-10
5.34111e-10
4.53558e-10
3.71006e-10
3.11357e-10
2.79317e-10
6.08262e-10
1.19309e-11
1.28891e-11
1.36784e-11
7.53031e-12
3.11298e-12
9.16703e-13
2.07222e-13
3.81188e-14
8.72773e-15
2.36462e-14
1.29333e-13
6.07712e-13
2.84134e-12
1.14633e-11
3.6006e-11
8.87914e-11
1.66907e-10
2.29081e-10
2.23942e-10
1.73202e-10
1.21574e-10
1.15096e-10
1.85145e-10
2.42376e-12
2.44018e-12
2.48369e-12
1.3933e-12
5.23882e-13
1.49793e-13
3.17801e-14
5.65877e-15
2.41513e-15
1.05666e-14
5.79103e-14
2.71533e-13
1.16494e-12
4.22777e-12
1.19935e-11
2.89408e-11
5.6176e-11
8.28572e-11
9.04324e-11
7.26815e-11
5.139e-11
3.17229e-11
5.25204e-11
3.23323e-13
4.01556e-13
4.01281e-13
2.28048e-13
7.91787e-14
2.16308e-14
4.36534e-15
8.05928e-16
7.62256e-16
4.07193e-15
2.18154e-14
1.03175e-13
4.32231e-13
1.43579e-12
3.77452e-12
8.84551e-12
1.71594e-11
2.65523e-11
3.16146e-11
2.73565e-11
1.78688e-11
1.27334e-11
1.4241e-11
5.4436e-14
5.91687e-14
5.94342e-14
3.31774e-14
1.09377e-14
2.81012e-15
5.44515e-16
1.17293e-16
2.34888e-16
1.33672e-15
7.10687e-15
3.37421e-14
1.38826e-13
4.4744e-13
1.1334e-12
2.58757e-12
5.01086e-12
7.89662e-12
9.80505e-12
9.51526e-12
7.1099e-12
4.10838e-12
4.13127e-12
5.28901e-15
7.54847e-15
7.70836e-15
4.16044e-15
1.34928e-15
3.29293e-16
6.20188e-17
1.86505e-17
6.50308e-17
3.75248e-16
1.9803e-15
9.57347e-15
3.90477e-14
1.19433e-13
3.17214e-13
7.13628e-13
1.36906e-12
2.24582e-12
2.90491e-12
2.87125e-12
2.28616e-12
1.69753e-12
1.23435e-12
6.6566e-16
8.68232e-16
9.02934e-16
4.64503e-16
1.48917e-16
3.48706e-17
6.49885e-18
3.2669e-18
1.58146e-17
9.1915e-17
4.85095e-16
2.37961e-15
9.66046e-15
3.00184e-14
8.02183e-14
1.82451e-13
3.5358e-13
5.85678e-13
7.70754e-13
8.79437e-13
7.70744e-13
4.99532e-13
4.22064e-13
5.81113e-17
8.86889e-17
9.71285e-17
4.66755e-17
1.48578e-17
3.34743e-18
6.3853e-19
5.91896e-19
3.37772e-18
1.97556e-17
1.06043e-16
5.22799e-16
2.11062e-15
6.66307e-15
1.81519e-14
4.2403e-14
8.41339e-14
1.46154e-13
1.98695e-13
2.18619e-13
2.00273e-13
1.60399e-13
1.1743e-13
5.40237e-18
8.28384e-18
9.49274e-18
4.3147e-18
1.351e-18
2.92612e-19
6.08467e-20
1.03395e-19
6.37607e-19
3.76092e-18
2.01343e-17
9.9897e-17
4.09241e-16
1.31152e-15
3.70502e-15
8.71432e-15
1.79541e-14
3.06757e-14
4.50854e-14
5.79023e-14
5.38641e-14
3.46434e-14
3.29228e-14
5.03225e-19
7.26134e-19
8.38592e-19
3.71598e-19
1.12382e-19
2.34357e-20
5.85998e-21
1.67193e-20
1.07209e-19
6.39754e-19
3.53027e-18
1.7161e-17
7.08836e-17
2.32759e-16
6.39118e-16
1.59738e-15
3.44797e-15
6.0495e-15
9.00562e-15
1.15742e-14
1.03495e-14
8.41825e-15
7.18668e-15
4.48086e-20
5.93238e-20
6.73565e-20
2.96754e-20
8.57584e-21
1.73372e-21
5.86642e-22
2.46416e-21
1.61794e-20
9.79247e-20
5.48958e-19
2.68951e-18
1.10681e-17
3.72364e-17
1.04137e-16
2.66661e-16
5.51114e-16
9.90884e-16
1.66716e-15
2.23785e-15
2.18704e-15
1.39918e-15
1.67252e-15
3.73057e-21
4.46702e-21
4.96485e-21
2.18384e-21
6.02863e-22
1.19681e-22
6.08488e-23
3.30124e-22
2.20717e-21
1.35729e-20
7.71551e-20
3.83453e-19
1.5712e-18
5.40601e-18
1.5343e-17
3.73661e-17
8.81531e-17
1.618e-16
2.69359e-16
3.61838e-16
3.50889e-16
2.70877e-16
2.83128e-16
2.88876e-22
3.10141e-22
3.38626e-22
1.48171e-22
3.92592e-23
7.80846e-24
6.35442e-24
4.03079e-23
2.73964e-22
1.7135e-21
9.87314e-21
4.96887e-20
2.03917e-19
7.12578e-19
2.07535e-18
5.39304e-18
1.24531e-17
2.31342e-17
3.39059e-17
5.42e-17
5.66832e-17
4.78999e-17
5.47395e-17
2.06777e-23
1.99958e-23
2.15032e-23
9.31736e-24
2.38267e-24
4.89224e-25
6.46884e-25
4.50631e-24
3.11298e-23
1.98109e-22
1.15645e-21
5.87636e-21
2.42867e-20
8.58635e-20
2.5868e-19
6.92363e-19
1.59137e-18
3.06871e-18
4.96349e-18
7.50853e-18
8.34588e-18
7.90121e-18
9.0906e-18
1.36817e-24
1.20637e-24
1.27723e-24
5.46611e-25
1.3557e-25
2.99918e-26
6.27859e-26
4.6374e-25
3.25647e-24
2.10863e-23
1.24601e-22
6.38019e-22
2.66361e-21
9.53376e-21
2.95774e-20
8.03419e-20
1.86826e-19
3.72133e-19
6.23633e-19
9.56718e-19
1.13384e-18
1.21349e-18
1.37815e-18
8.44707e-26
6.85317e-26
7.12861e-26
3.01098e-26
7.27332e-27
1.83383e-27
5.74738e-27
4.41691e-26
3.15344e-25
2.07662e-24
1.24089e-23
6.39632e-23
2.70054e-22
9.79855e-22
3.10525e-21
8.5555e-21
2.02602e-20
4.14535e-20
7.1532e-20
1.12704e-19
1.42429e-19
1.68249e-19
1.91988e-19
4.92417e-27
3.68438e-27
3.7594e-27
1.56641e-27
3.70032e-28
1.13465e-28
4.94655e-28
3.91465e-27
2.84173e-26
1.90159e-25
1.14782e-24
5.95269e-24
2.54214e-23
9.35017e-23
3.01073e-22
8.42549e-22
2.03724e-21
4.27572e-21
7.59387e-21
1.23346e-20
1.64249e-20
2.09743e-20
2.48595e-20
2.73e-28
1.88278e-28
1.88499e-28
7.73625e-29
1.79545e-29
7.13898e-30
4.00618e-29
3.24528e-28
2.39527e-27
1.62701e-26
9.91001e-26
5.16903e-25
2.23263e-24
8.31543e-24
2.71457e-23
7.72232e-23
1.90724e-22
4.10755e-22
7.50579e-22
1.26048e-21
1.73063e-21
2.38897e-21
2.86098e-21
1.44184e-29
9.18202e-30
9.0375e-30
3.64401e-30
8.35808e-31
4.54269e-31
3.06084e-30
2.52884e-29
1.89743e-28
1.30686e-27
8.02512e-27
4.20927e-26
1.83839e-25
6.92642e-25
2.29118e-24
6.62629e-24
1.67045e-23
3.69354e-23
6.94436e-23
1.20896e-22
1.7206e-22
2.5368e-22
3.43594e-22
7.2498e-31
4.28923e-31
4.1607e-31
1.6436e-31
3.75601e-32
2.88954e-32
2.21281e-31
1.86059e-30
1.41877e-29
9.89832e-29
6.12419e-28
3.23004e-27
1.42617e-26
5.43284e-26
1.82159e-25
5.35355e-25
1.37642e-24
3.12502e-24
6.04917e-24
1.09413e-23
1.6444e-23
2.51126e-23
3.80847e-23
3.47229e-32
1.92542e-32
1.84422e-32
7.12328e-33
1.64016e-33
1.81464e-33
1.5184e-32
1.29778e-31
1.00534e-30
7.09876e-30
4.42257e-29
2.34605e-28
1.04713e-27
4.03329e-27
1.36791e-26
4.09467e-26
1.07319e-25
2.50202e-25
4.99275e-25
9.39713e-25
1.51004e-24
2.34445e-24
4.48577e-24
0.00630335
0.00837165
0.0192171
0.0411789
0.0167033
0.0409939
0.102167
0.183574
0.375595
0.408713
0.412238
0.654153
0.953374
0.954826
0.996589
1
0.999984
0.999999
1
1
0.807768
0.958582
0.904614
0.936437
0.00932589
0.00555075
0.0774473
0.358649
2.4801e-08
5.8515e-07
7.64384e-08
1.43965e-07
1.66979e-07
1.48168e-07
6.1807e-08
5.65581e-08
9.16524e-08
5.95586e-08
1.12743e-10
1.12947e-10
1.29963e-09
3.48607e-09
6.61906e-10
1.13938e-10
3.04431e-10
2.60537e-10
2.64881e-10
1.21338e-10
9.15739e-09
7.63206e-09
1.4625e-09
1.93443e-10
2.79525e-07
2.58935e-08
7.13377e-17
7.54695e-17
5.82058e-05
9.11464e-05
9.11913e-05
3.38919e-05
9.20054e-05
5.81633e-05
1.88059e-05
8.12659e-05
2.44734e-05
3.60195e-06
8.85639e-08
1.88034e-05
1.558e-07
1.52308e-08
7.64588e-08
5.62935e-08
2.32687e-08
1.56861e-08
1.66894e-08
2.57686e-08
6.89559e-09
5.79078e-09
1.06075e-08
1.30945e-08
2.39156e-09
2.82691e-09
3.44689e-09
6.53742e-09
8.08077e-10
7.86514e-10
1.5058e-09
2.08979e-09
2.55715e-10
2.98482e-10
3.65343e-10
6.29495e-10
6.68761e-11
6.46706e-11
1.03296e-10
1.19779e-10
1.75585e-11
1.76878e-11
1.78514e-11
2.8402e-11
4.36085e-12
3.25417e-12
4.09995e-12
4.58446e-12
1.19751e-12
9.45657e-13
7.85652e-13
1.09264e-12
3.52517e-13
2.35612e-13
2.30359e-13
2.8796e-13
1.0219e-13
7.76804e-14
6.35859e-14
9.43086e-14
2.79145e-14
1.89373e-14
2.0342e-14
3.49632e-14
6.8707e-15
5.33285e-15
5.93033e-15
1.21324e-14
1.42528e-15
1.19896e-15
1.56764e-15
3.8845e-15
2.86065e-16
2.60244e-16
4.12678e-16
1.18034e-15
5.32692e-17
5.44583e-17
1.1181e-16
4.06525e-16
9.062e-18
1.17349e-17
3.40447e-17
1.47212e-16
1.47392e-18
2.63426e-18
1.02286e-17
5.07038e-17
2.33531e-19
5.78584e-19
2.74947e-18
1.47418e-17
3.63401e-20
1.17428e-19
6.57015e-19
3.84359e-18
5.47123e-21
2.31433e-20
1.46998e-19
9.66642e-19
8.30151e-22
4.498e-21
3.32335e-20
2.58295e-19
1.31364e-22
9.49908e-22
9.49862e-21
9.86235e-20
3.20994e-23
3.83026e-22
5.2749e-21
6.48377e-20
0.15681
0.260123
0.315271
0.387788
0.461703
0.427737
0.0322827
0.0108961
0.0395875
0.0220154
0.516441
0.626842
0.301285
0.39302
0.227527
0.0159122
0.0158863
0.632212
0.610649
0.523576
0.556683
0.433228
0.364613
0.461324
0.472178
0.412461
0.0579503
0.0245716
0.0136676
0.0752042
0.654162
0.538387
0.362475
0.306573
0.240298
0.635152
0.76423
0.610737
0.986926
0.999999
0.904896
0.380556
0.185532
0.401975
0.485541
0.478336
0.270037
0.322238
0.346875
0.403195
0.474685
0.527631
0.544452
0.544774
0.57209
0.742021
0.409335
1
1
0.999999
0.758198
0.119577
0.0321041
0.214867
0.435752
0.554427
0.554456
0.554686
0.547795
0.510828
0.358396
0.303511
0.303737
0.309721
0.427714
0.193939
1
1
1
0.988259
0.464587
0.00782059
0.00748803
0.0742099
0.262959
0.487617
0.555491
0.43879
0.438879
0.530503
0.500028
0.385938
0.155223
0.0749336
0.0669319
0.995549
1
1
0.999998
0.930038
0.311789
0.000854082
0.000896181
0.00538202
0.262568
0.61231
0.730746
0.73149
0.700711
0.772981
0.676579
0.188975
0.0415008
0.0415888
0.713689
0.994427
1
1
0.999979
0.98735
0.478226
0.0756851
0.000934748
0.00120565
0.222898
0.622252
0.838487
0.960078
0.897077
0.908258
0.243684
0.0404905
0.0404959
0.0152622
0.543058
0.992158
1
1
0.999986
0.999895
0.856674
0.345567
0.133688
0.0654705
0.0641003
0.371044
0.960624
0.999958
0.976445
0.321096
0.0433044
0.0467536
7.53226e-08
1.33237e-07
0.461234
0.960892
1
1
1
0.999943
0.999916
0.95469
0.782548
0.734082
0.755094
0.923915
0.999958
0.999875
0.513546
0.0544184
0.424846
1.12776e-10
2.25089e-08
8.76381e-08
0.362829
0.913019
1
1
1
0.999997
0.999974
0.999972
0.999968
0.999967
0.999966
0.999964
0.999964
0.835651
0.0664337
0.717326
2.71147e-09
1.59665e-08
3.80922e-08
7.82077e-08
0.252529
0.830388
1
1
1
0.999874
0.997744
0.995324
0.997658
0.999965
0.999964
0.999964
0.919491
0.0883857
0.99959
1.33894e-09
3.26961e-09
1.34807e-08
2.9529e-08
7.71316e-08
0.130971
0.710086
1
1
1
0.992811
0.980606
0.980564
0.996969
0.999954
0.999962
0.943303
0.634163
0.999587
3.37309e-10
8.66275e-10
7.76462e-10
1.87113e-08
2.06979e-08
7.79587e-08
0.0293256
0.533027
0.941416
1
0.998203
0.985102
0.980575
0.983072
0.999309
0.999369
0.997917
0.997943
0.994948
4.03152e-16
1.92994e-16
1.22423e-07
3.44542e-08
1.12678e-08
1.22328e-08
1.64494e-08
6.09292e-08
0.262948
0.753441
0.979083
0.987605
0.987516
0.985427
0.995302
0.994748
0.984362
0.956966
0.901702
1.32861e-07
3.06309e-06
1.40459e-06
2.0294e-07
1.35631e-08
8.02582e-09
7.92902e-09
1.49354e-08
5.7498e-08
0.0287689
0.423381
0.831387
0.985936
0.994889
0.995179
0.991041
0.914441
0.877049
0.877046
0.000317347
0.000338774
0.000186916
1.435e-06
5.45736e-08
8.66808e-09
6.95425e-09
6.81516e-09
6.77182e-09
6.79763e-09
4.00948e-08
0.0896976
0.493478
0.829425
0.930385
0.942865
0.904712
0.882904
0.8816
0.000338207
0.000339032
0.000261095
7.92605e-06
9.31798e-08
1.13581e-08
7.32418e-09
6.90694e-09
6.79113e-09
1.37431e-08
3.86894e-08
3.75314e-08
8.60832e-08
0.100257
0.23951
0.271225
0.262995
0.263897
0.250975
0.000101248
0.00018399
7.97238e-05
7.95774e-07
4.23269e-08
6.12026e-09
5.2869e-09
6.18485e-09
6.92237e-09
2.4375e-08
1.81293e-07
4.06144e-07
1.50248e-07
1.5263e-07
1.80996e-07
1.8169e-07
1.76255e-07
1.95526e-07
2.07441e-07
4.84528e-08
1.70576e-07
8.67413e-08
3.20088e-08
9.40031e-09
4.87541e-09
4.04211e-09
4.46107e-09
4.24952e-09
5.7069e-09
8.11163e-08
1.31132e-06
1.89245e-06
1.55501e-07
7.37782e-05
0.000270346
0.000237745
0.000179477
2.10334e-07
1.30997e-08
1.25123e-08
1.01926e-08
6.49833e-09
3.93694e-09
2.98189e-09
2.84542e-09
3.22708e-09
3.68737e-09
3.60593e-09
3.58095e-09
1.84744e-07
4.10048e-06
4.66313e-06
0.000104307
0.000912698
0.000937472
0.00168556
0.063192
6.22072e-09
4.91802e-09
3.88556e-09
2.85273e-09
2.12375e-09
1.86042e-09
1.91274e-09
2.23563e-09
2.7969e-09
3.47213e-09
3.72687e-09
3.73099e-09
3.735e-09
4.03277e-06
3.86823e-05
1.95189e-05
1.58536e-06
1.55348e-06
0.463427
2.4792e-09
2.11044e-09
1.6717e-09
1.26508e-09
1.06496e-09
1.05027e-09
1.17811e-09
1.46176e-09
1.97956e-09
2.82949e-09
4.45087e-09
5.95791e-09
6.34525e-09
6.33313e-09
6.30776e-09
3.27277e-05
0.000762917
1.58512e-06
0.522265
7.92285e-10
7.36017e-10
5.87782e-10
4.9558e-10
4.97795e-10
5.53363e-10
6.82191e-10
9.38713e-10
1.36955e-09
1.96295e-09
3.22117e-09
5.47952e-09
1.03373e-08
9.76597e-09
1.00605e-08
1.00108e-08
0.0165528
1.55347e-06
0.522239
2.09123e-10
2.11303e-10
1.88302e-10
1.92567e-10
2.24074e-10
2.87422e-10
4.05593e-10
6.43123e-10
1.02606e-09
1.50657e-09
1.85114e-09
5.1616e-09
1.50833e-08
1.96975e-08
1.44255e-08
1.00584e-08
0.0201605
1.5851e-06
0.522264
4.37123e-11
5.10808e-11
5.78657e-11
7.47576e-11
1.08248e-10
1.77639e-10
3.12717e-10
5.96566e-10
1.0683e-09
1.68508e-09
2.25233e-09
3.99247e-09
1.93814e-08
2.8242e-08
1.51976e-08
9.87097e-09
0.0193672
1.55345e-06
0.500024
9.56389e-12
1.33859e-11
2.10509e-11
3.74178e-11
7.32071e-11
1.50742e-10
3.3965e-10
7.16665e-10
1.39206e-09
2.63946e-09
3.18972e-09
3.32757e-09
2.08876e-08
3.24644e-08
1.54856e-08
9.83751e-09
0.00132501
0.00293651
0.0940165
2.00404e-12
4.57856e-12
1.03439e-11
2.50729e-11
6.26637e-11
1.49206e-10
3.72028e-10
7.8196e-10
1.61781e-09
2.99666e-09
3.443e-09
4.56928e-09
3.38618e-08
4.08762e-08
1.49604e-08
0.000540672
0.000514594
0.00400389
0.000400536
7.06574e-13
2.32164e-12
6.67738e-12
1.91549e-11
5.32889e-11
1.37053e-10
3.47845e-10
7.62848e-10
1.60624e-09
3.05424e-09
4.29668e-09
4.49321e-09
2.62335e-08
5.44295e-08
1.5391e-08
0.0038272
0.00086497
0.00427605
0.000401242
3.16187e-13
1.28991e-12
4.34201e-12
1.3715e-11
4.16629e-11
1.10993e-10
2.77454e-10
6.61864e-10
1.44462e-09
2.60643e-09
4.05864e-09
5.65346e-09
3.10149e-08
6.20095e-08
3.65446e-08
0.00382947
0.0037328
0.00426616
0.000556534
1.47563e-13
6.58931e-13
2.4057e-12
7.80543e-12
2.47335e-11
6.99584e-11
1.89253e-10
5.26519e-10
1.27242e-09
2.21857e-09
2.38775e-09
1.60145e-08
1.27268e-07
1.32433e-07
4.15155e-08
0.00236485
0.0030901
0.00236362
0.000586735
5.81301e-14
2.75158e-13
1.11937e-12
4.05101e-12
1.4367e-11
4.91099e-11
1.67743e-10
5.09831e-10
1.40278e-09
2.59015e-09
2.51448e-09
3.05671e-08
2.79505e-07
2.35405e-07
5.28532e-08
1.35168e-08
1.19054e-08
3.0575e-08
0.000129899
2.07563e-14
1.07467e-13
5.13836e-13
2.2233e-12
9.71352e-12
4.21096e-11
1.58439e-10
5.24863e-10
1.56873e-09
3.01119e-09
2.64387e-09
7.3223e-08
2.981e-07
2.89186e-07
7.86069e-08
1.67655e-08
1.11275e-08
8.24808e-09
1.13298e-08
7.41999e-15
4.72209e-14
2.71766e-13
1.48926e-12
7.92786e-12
3.81014e-11
1.5068e-10
5.20801e-10
1.63616e-09
3.26194e-09
2.76364e-09
7.4867e-08
2.98298e-07
2.98504e-07
1.30662e-07
4.88448e-08
2.53552e-08
1.18904e-08
6.74832e-09
3.02209e-15
2.37874e-14
1.67136e-13
1.03398e-12
6.14718e-12
3.07437e-11
1.26884e-10
4.74977e-10
1.59991e-09
3.25061e-09
2.77525e-09
1.98718e-08
2.71515e-07
2.98515e-07
2.65363e-07
1.08023e-07
4.2755e-08
1.69225e-08
7.22111e-09
1.17966e-15
9.99954e-15
7.4524e-14
5.00065e-13
3.02982e-12
1.58005e-11
7.03082e-11
2.92371e-10
1.00176e-09
2.34615e-09
3.63868e-09
6.63243e-09
1.23414e-07
2.93591e-07
2.97931e-07
2.41384e-07
6.29025e-08
2.25164e-08
7.40852e-09
3.85268e-16
3.33145e-15
2.53185e-14
1.73749e-13
1.12439e-12
6.34426e-12
3.11574e-11
1.45166e-10
5.47841e-10
1.59272e-09
3.37692e-09
4.25831e-09
1.17489e-08
9.61101e-08
2.7349e-07
2.75122e-07
1.01894e-07
2.46595e-08
8.80193e-09
1.0615e-16
9.38372e-16
7.26699e-15
5.36908e-14
3.85225e-13
2.34287e-12
1.34857e-11
6.53947e-11
2.78277e-10
8.87596e-10
2.49057e-09
5.20292e-09
6.47968e-09
7.59344e-09
2.34976e-08
9.2104e-08
1.09166e-07
4.3564e-08
1.02157e-08
2.70528e-17
2.54169e-16
2.28584e-15
1.97156e-14
1.6669e-13
1.1098e-12
6.63576e-12
3.45836e-11
1.45105e-10
4.97787e-10
1.36636e-09
3.21561e-09
4.72755e-09
4.64243e-09
6.29136e-09
1.11281e-08
5.33043e-08
4.34268e-08
1.04391e-08
7.00165e-18
7.65739e-17
8.24226e-16
8.04675e-15
7.35845e-14
5.22312e-13
3.29423e-12
1.75815e-11
7.21486e-11
2.44265e-10
7.03392e-10
1.52336e-09
2.89302e-09
2.86521e-09
2.51749e-09
1.28716e-09
9.15781e-09
1.47678e-08
7.495e-09
2.07172e-18
2.80926e-17
3.69387e-16
4.17831e-15
3.808e-14
2.70021e-13
1.58612e-12
7.59335e-12
3.12545e-11
9.95959e-11
2.75544e-10
5.62473e-10
1.07731e-09
6.50345e-10
1.81349e-10
1.58664e-12
1.21729e-13
3.38783e-09
3.20998e-09
1.11297e-18
2.05238e-17
2.95622e-16
3.3745e-15
2.98475e-14
2.06181e-13
1.11853e-12
4.66931e-12
1.50077e-11
4.07444e-11
9.31105e-11
1.62521e-10
2.66894e-10
7.42101e-11
1.60589e-11
1.71876e-12
3.945e-14
8.96793e-10
9.46688e-10
6.87471e-19
1.06754e-17
1.46182e-16
1.47109e-15
1.03837e-14
5.7162e-14
2.38738e-13
8.07518e-13
2.27001e-12
5.3462e-12
9.70952e-12
1.47252e-11
1.48941e-11
2.04385e-12
1.23109e-13
3.94828e-15
1.5007e-15
2.72115e-11
2.77585e-11
)
;

boundaryField
{
    leftWall
    {
        type            zeroGradient;
    }
    rightWall
    {
        type            zeroGradient;
    }
    lowerWall
    {
        type            zeroGradient;
    }
    atmosphere
    {
        type            inletOutlet;
        inletValue      uniform 0;
        value           nonuniform List<scalar> 
46
(
3.47229e-32
1.92542e-32
1.84422e-32
7.12328e-33
1.64016e-33
1.81464e-33
1.5184e-32
1.29778e-31
1.00534e-30
7.09876e-30
4.42257e-29
2.34605e-28
1.04713e-27
4.03329e-27
1.36791e-26
4.09467e-26
1.07319e-25
2.50202e-25
4.99275e-25
9.39713e-25
1.51004e-24
2.34445e-24
4.48577e-24
3.20994e-23
3.83026e-22
5.2749e-21
6.48377e-20
6.87471e-19
1.06754e-17
1.46182e-16
0
0
0
0
0
0
0
0
0
0
0
0
0
0
0
0
)
;
    }
    defaultFaces
    {
        type            empty;
    }
}


// ************************************************************************* //
