/*--------------------------------*- C++ -*----------------------------------*\
| =========                 |                                                 |
| \\      /  F ield         | OpenFOAM: The Open Source CFD Toolbox           |
|  \\    /   O peration     | Version:  2312                                  |
|   \\  /    A nd           | Website:  www.openfoam.com                      |
|    \\/     M anipulation  |                                                 |
\*---------------------------------------------------------------------------*/
FoamFile
{
    version     2.0;
    format      ascii;
    arch        "LSB;label=32;scalar=64";
    class       volScalarField;
    location    "0.75";
    object      alpha.water;
}
// * * * * * * * * * * * * * * * * * * * * * * * * * * * * * * * * * * * * * //

dimensions      [0 0 0 0 0 0 0];

internalField   nonuniform List<scalar> 
2268
(
3.16605e-11
2.97678e-11
2.75046e-11
2.5262e-11
2.43903e-11
2.38581e-11
2.37231e-11
2.36644e-11
2.22628e-11
1.9573e-11
1.59335e-11
1.25151e-11
1.00521e-11
8.76107e-12
8.76359e-12
9.72856e-12
1.27416e-11
2.09127e-11
3.73384e-11
6.89211e-11
1.39351e-10
2.51982e-10
2.75885e-10
3.77907e-10
2.4872e-10
1.89878e-10
1.09539e-10
8.45745e-11
2.39095e-11
2.35381e-11
2.35388e-11
4.81215e-11
5.58561e-11
5.30682e-11
4.60571e-11
3.75796e-11
3.16429e-11
2.97421e-11
3.12901e-11
3.78195e-11
5.49234e-11
9.03706e-11
1.81398e-10
4.9505e-10
1.06349e-09
9.53893e-10
0.0911509
0.0833972
0.075974
0.0620536
0.0410361
0.0126763
2.35332e-11
2.35351e-11
2.44863e-11
3.18349e-11
4.66502e-11
5.38803e-11
5.64562e-11
5.66434e-11
5.41602e-11
5.53823e-11
6.50901e-11
9.47776e-11
2.1619e-10
5.45124e-10
1.11613e-09
1.78918e-09
1.68834e-09
0.824323
0.812341
0.800125
0.773757
0.724415
0.628272
0.422124
0.136796
2.43118e-11
2.41691e-11
3.42606e-11
4.47566e-11
4.95472e-11
5.25271e-11
5.50613e-11
6.19343e-11
7.76364e-11
1.19161e-10
3.2437e-10
1.24959e-09
2.76954e-09
4.28541e-09
3.60632e-09
1
1
1
1
1
1
0.984894
0.796578
0.229285
2.37713e-11
3.28168e-11
3.45046e-11
3.93492e-11
4.39989e-11
4.82743e-11
5.46418e-11
6.4689e-11
9.08434e-11
2.40049e-10
9.45266e-10
3.66945e-09
8.91069e-09
8.5475e-09
1
1
1
1
1
1
1
1
0.756138
0.100498
3.29046e-11
3.32252e-11
3.05448e-11
3.13186e-11
3.11189e-11
3.11206e-11
3.1119e-11
3.12682e-11
3.142e-11
3.1573e-11
3.17285e-11
3.18861e-11
7.46702e-09
1
1
1
1
1
1
1
1
0.982434
0.424448
0.000375544
3.02482e-11
3.02568e-11
3.02482e-11
3.15717e-11
3.78317e-10
0.00177299
0.00566401
0.00666634
0.00409551
0.00136851
0.000495593
7.7311e-09
1
1
1
1
1
1
1
1
1
0.81092
0.14082
3.02568e-11
0.0133853
0.0726022
0.185448
0.28091
0.356542
0.407495
0.416266
0.388293
0.345742
0.322455
0.269997
2.97472e-12
4.61324e-12
5.0463e-12
8.92913e-06
0.00100212
0.000202585
0.000223281
0.00132089
0.00675544
0.010223
0.0139146
0.0141122
0.00957017
0.00205253
0.00201337
0.0143715
0.0342563
0.0430232
0.0429875
2.38969e-12
2.37953e-12
5.84199e-05
0.0221391
0.0510777
0.0305513
0.0316535
0.0445
0.0448102
0.0521089
0.07819
0.0695132
0.043118
0.00259728
0.00198829
0.0157389
0.0717497
0.108075
0.119061
1.35732e-12
2.01958e-06
0.195457
0.363727
0.442947
0.469079
0.431476
0.299118
0.293802
0.443579
0.541208
0.438047
0.106085
0.00292234
0.00809325
0.0458086
0.0501773
0.107891
0.12367
1.35529e-12
0.162556
0.587128
0.811515
0.90037
0.947892
0.946177
0.93424
0.926369
0.897156
0.699995
0.451395
0.0851995
0.00613499
0.0128478
0.0245056
0.00967835
0.0655977
0.106509
0.280669
0.681574
0.901744
0.992829
0.992829
0.992829
0.992829
0.99283
0.898822
0.325865
0.0958533
0.079027
0.0428319
0.00559184
0.00696262
6.60842e-05
-9.79229e-21
0.0013761
0.0154881
0.700583
0.873558
0.979664
0.980244
0.992515
0.992829
0.992829
0.992757
0.334557
1.46111e-05
0.00215922
0.00613596
0.0080674
0.00330614
0.00378712
-3.77522e-24
-5.88548e-25
2.45137e-07
0.00397982
0.724324
0.873454
0.729337
0.695406
0.855602
0.989525
0.992829
0.94915
0.118313
3.79589e-10
3.96925e-10
8.78358e-05
0.000132494
0.000985276
8.35863e-06
1.35888e-25
5.7101e-14
4.13374e-05
0.0199022
0.726151
0.637802
0.237576
0.318496
0.554582
0.924737
0.992829
0.967511
0.292746
0.123977
0.000202389
1.34796e-08
2.96487e-07
8.36643e-08
5.35227e-08
4.69107e-09
8.56595e-09
1.99163e-13
0.131079
1
1
1
1
1
1
1
1
1
0.998978
0.859564
0.573819
0.536801
0.699106
0.830168
0.882166
0.910649
0.928449
0.930748
0.919159
0.900642
0.891847
0.866571
1
1
1
1
1
1
1
1
1
1
1
1
1
0.999997
0.999692
0.999487
0.999336
0.999222
0.997795
0.994463
0.989698
0.986488
0.98351
1
1
1
1
1
1
1
1
1
1
1
1
1
0.999765
0.977605
0.931832
0.877535
0.811249
0.74307
0.690333
0.667018
0.688963
0.712659
1
1
1
0.999999
0.999998
0.999999
1
0.999999
0.991368
0.983476
0.992733
0.979432
0.892188
0.71695
0.492296
0.330978
0.210809
0.124525
0.0753935
0.0655247
0.13135
0.156141
0.0410223
1
1
1
1
0.967304
0.827243
0.719366
0.591866
0.492295
0.431346
0.354353
0.227559
0.0953408
0.0050915
3.157e-14
3.11978e-14
-1.22526e-09
1.6549e-26
1.21569e-20
1.00147e-14
0.000140542
6.61638e-05
0.00141137
0.977276
0.86182
0.76709
0.692562
0.423477
0.130354
0.0647413
0.0338366
0.0389947
0.0177034
0.00168643
1.19908e-24
-1.20333e-24
4.85152e-24
5.95656e-07
1.43729e-06
1.04007e-06
8.79514e-08
7.17414e-25
-9.74969e-28
1.65188e-22
0.000116959
0.000289962
0.500139
0.224019
0.131447
0.0656819
0.0113766
0.000174058
0.000192366
3.31331e-08
3.12559e-08
2.93877e-08
2.7529e-08
3.79359e-06
2.14137e-06
2.80086e-06
4.57121e-06
4.43656e-06
1.31895e-06
2.03551e-25
2.48295e-24
-1.17992e-23
6.15288e-06
1.89562e-05
3.58481e-10
0.00827306
1.74107e-08
-2.71844e-19
-4.45318e-20
-2.79185e-15
-1.6095e-12
5.02183e-09
2.03704e-06
2.39261e-06
1.19812e-06
2.56801e-08
4.39991e-07
2.1965e-12
5.6329e-07
4.39387e-06
4.12734e-06
1.28361e-06
4.14054e-19
1.20112e-09
9.25591e-13
1.467e-06
6.94595e-06
6.87535e-06
0.00132914
2.07286e-26
-2.18936e-22
1.20992e-09
5.7049e-09
3.48691e-08
1.40159e-07
2.78718e-07
2.92397e-08
5.3352e-14
2.29132e-14
6.7898e-14
4.47207e-14
7.71567e-09
2.92733e-07
1.00888e-06
4.6223e-07
-2.57126e-27
2.82868e-09
2.10565e-09
2.15879e-09
8.40012e-07
1.06061e-05
-1.46581e-22
1.86061e-19
1.67188e-08
4.05925e-09
9.03481e-09
9.22323e-09
1.00928e-08
6.16299e-09
3.25824e-11
3.26211e-11
3.6914e-11
4.67922e-11
4.54878e-11
9.40972e-11
1.02578e-10
1.09639e-10
1.17256e-10
2.03971e-09
3.13549e-09
3.33313e-09
2.96889e-09
2.49258e-08
1.79671e-06
1.64773e-08
8.39861e-08
5.28664e-08
1.5227e-08
2.87491e-08
2.09597e-08
3.99649e-11
1.95198e-10
4.70405e-11
2.74676e-11
4.00055e-11
5.47522e-11
5.26388e-11
5.91136e-11
1.62502e-10
6.45532e-10
2.4793e-09
1.04827e-08
1.04481e-08
4.64719e-09
3.17964e-09
4.24857e-09
8.10063e-08
1.55317e-07
7.76225e-07
8.38027e-08
1.04314e-08
2.74343e-08
2.2707e-09
3.98778e-11
3.99662e-11
2.53661e-11
1.69941e-11
2.3517e-11
4.20358e-11
4.21122e-11
3.3648e-11
7.77762e-11
3.78452e-10
2.24201e-09
1.09246e-08
1.37947e-08
1.01716e-08
6.69267e-09
2.51879e-09
6.24365e-09
2.21663e-07
8.13428e-07
1.00583e-07
3.932e-09
4.54094e-09
3.35558e-10
1.51038e-10
6.67093e-11
2.98511e-11
1.58721e-11
1.55272e-11
2.65155e-11
2.84231e-11
1.6245e-11
1.68225e-11
1.22141e-10
8.72743e-10
5.31073e-09
1.37576e-08
1.37947e-08
1.05379e-08
8.73946e-09
4.39059e-09
2.16073e-07
8.16329e-07
8.44593e-08
7.15253e-09
2.52379e-10
2.52206e-10
1.28435e-10
5.2588e-11
2.34721e-11
1.22748e-11
1.18549e-11
1.81251e-11
1.66243e-11
7.38321e-12
1.22168e-12
1.4831e-11
2.15228e-10
1.59068e-09
5.50928e-09
1.02845e-08
1.18297e-08
1.371e-08
1.16485e-08
1.15564e-07
1.40302e-07
3.12644e-08
5.63017e-09
2.65965e-10
1.47408e-10
6.54948e-11
2.94705e-11
1.26615e-11
6.82674e-12
7.45764e-12
9.96696e-12
7.66668e-12
2.6413e-12
2.33331e-13
4.10415e-13
3.93698e-11
3.83048e-10
1.51346e-09
2.52607e-09
5.02443e-09
1.34173e-08
1.37105e-08
5.78678e-08
1.41746e-08
5.25553e-09
1.40398e-09
2.83356e-10
6.88472e-11
3.35477e-11
1.32906e-11
5.64624e-12
3.01237e-12
3.69055e-12
4.17387e-12
2.50359e-12
6.0376e-13
3.97686e-14
5.92755e-14
9.42127e-13
2.2176e-11
9.99358e-11
7.20881e-11
3.74102e-10
3.30961e-09
1.01843e-08
3.00908e-08
4.95173e-09
8.20484e-10
2.79994e-10
7.60474e-11
3.19032e-11
1.57398e-11
6.39392e-12
2.14619e-12
1.09586e-12
1.26501e-12
1.25984e-12
5.76942e-13
1.01806e-13
5.77541e-15
6.29415e-15
1.53451e-15
1.06857e-13
3.9981e-13
3.78326e-16
9.14839e-12
3.01951e-11
1.42504e-09
3.89406e-09
1.42205e-09
3.36802e-10
1.0442e-10
3.13161e-11
1.53211e-11
7.14898e-12
2.57812e-12
7.64355e-13
3.64817e-13
3.67839e-13
3.13975e-13
1.09273e-13
1.42298e-14
7.2273e-16
5.28239e-16
8.85993e-17
4.38829e-15
1.90699e-16
3.49505e-16
1.42071e-12
8.27674e-13
3.06691e-11
4.02329e-10
2.85679e-10
1.15515e-10
3.25949e-11
1.34807e-11
7.08732e-12
2.69356e-12
8.84999e-13
2.39984e-13
1.05623e-13
9.31093e-14
6.42145e-14
1.8322e-14
1.77832e-15
8.03102e-17
3.74191e-17
4.50314e-18
2.26277e-16
1.20532e-17
1.06725e-16
1.17678e-13
3.73812e-13
2.51851e-12
1.26165e-10
8.66923e-11
3.27501e-11
1.08698e-11
5.43509e-12
2.54256e-12
8.99704e-13
2.52952e-13
6.45718e-14
2.65341e-14
2.04592e-14
1.21784e-14
2.80928e-15
2.06714e-16
8.11034e-18
2.43653e-18
3.68154e-19
8.05042e-18
1.58134e-18
4.34755e-17
2.26182e-14
7.3958e-14
3.13204e-13
2.10123e-11
1.75552e-11
7.29621e-12
3.56411e-12
1.82191e-12
7.66119e-13
2.50052e-13
6.31762e-14
1.49403e-14
5.78224e-15
3.9399e-15
2.05223e-15
3.9642e-16
2.28761e-17
7.57046e-19
1.51862e-19
3.46282e-20
3.33402e-19
3.35164e-19
1.57855e-17
3.12488e-15
1.79898e-14
4.55494e-14
5.07243e-12
4.02167e-12
1.96852e-12
1.03765e-12
5.21723e-13
2.00343e-13
5.90501e-14
1.36915e-14
2.9004e-15
1.11581e-15
6.62103e-16
3.10612e-16
5.18633e-17
2.42704e-18
6.62706e-20
8.92513e-21
3.34255e-21
1.5021e-20
8.5173e-20
4.72616e-18
4.29306e-16
1.50378e-15
6.81333e-15
6.46941e-13
7.76854e-13
4.60237e-13
2.66593e-13
1.28266e-13
4.48376e-14
1.18124e-14
2.49522e-15
4.98318e-16
1.8837e-16
1.00792e-16
4.27079e-17
6.33081e-18
2.45953e-19
5.49909e-21
4.94847e-22
3.23264e-22
9.59384e-22
2.03134e-20
1.13792e-18
4.92196e-17
3.17964e-16
1.18345e-15
1.23302e-13
1.47865e-13
1.01413e-13
5.94192e-14
2.53733e-14
8.39597e-15
2.03455e-15
3.9892e-16
7.85994e-17
2.74978e-17
1.38249e-17
5.34869e-18
6.64842e-19
2.31841e-20
4.35814e-22
2.74451e-23
3.08996e-23
1.09655e-22
3.73391e-21
2.19233e-19
6.30213e-18
2.17964e-17
2.31751e-16
1.57038e-14
2.58883e-14
1.93306e-14
1.13905e-14
4.46174e-15
1.37121e-15
3.09826e-16
5.71725e-17
1.11639e-17
3.38857e-18
1.69917e-18
6.08608e-19
6.84801e-20
2.06851e-21
3.27095e-23
1.66325e-24
3.08441e-24
1.5511e-23
5.58481e-22
3.42567e-20
4.67769e-19
3.79839e-18
4.06742e-17
2.66678e-15
4.20997e-15
3.31367e-15
1.9022e-15
6.99538e-16
1.98548e-16
4.21029e-17
7.33223e-18
1.4066e-18
3.84979e-19
1.87758e-19
6.27449e-20
6.63528e-21
1.73121e-22
2.3048e-24
1.16429e-25
3.37062e-25
2.11841e-24
6.68087e-23
4.50128e-21
6.50329e-20
2.22166e-19
5.7121e-18
2.70085e-16
5.99158e-16
4.86292e-16
2.68861e-16
9.59604e-17
2.55621e-17
5.11362e-18
8.42431e-19
1.56725e-19
4.07231e-20
1.86149e-20
5.85978e-21
5.81567e-22
1.24836e-23
1.49851e-25
9.37795e-27
3.79411e-26
2.66144e-25
7.33465e-24
3.92635e-22
4.32638e-21
3.19007e-20
6.00948e-19
3.61752e-17
7.74853e-17
6.39131e-17
3.35745e-17
1.16532e-17
2.93737e-18
5.55546e-19
8.7267e-20
1.53117e-20
3.9435e-21
1.66846e-21
4.97602e-22
4.60946e-23
8.61963e-25
9.0367e-27
8.34361e-28
4.16227e-27
2.97312e-26
6.41595e-25
3.71404e-23
4.82704e-22
1.31305e-21
6.88473e-20
3.44901e-18
8.84475e-18
7.63033e-18
3.73356e-18
1.26873e-18
3.02753e-19
5.41851e-20
8.2563e-21
1.25455e-21
3.47588e-22
1.37443e-22
3.86433e-23
3.32457e-24
5.7377e-26
5.05382e-28
7.89794e-29
4.3655e-28
3.06235e-27
5.30151e-26
2.1389e-24
2.39458e-23
1.42581e-22
5.01644e-21
3.60363e-19
9.20903e-19
8.18558e-19
3.78893e-19
1.2482e-19
2.81476e-20
4.77567e-21
7.06925e-22
9.39497e-23
2.79053e-23
9.96851e-24
2.74391e-24
2.18862e-25
3.51228e-27
2.63798e-29
7.69079e-30
4.38781e-29
2.7952e-28
4.09163e-27
1.91263e-25
2.28999e-24
3.52323e-24
4.41843e-22
3.79347e-20
8.93322e-20
7.87744e-20
3.55012e-20
1.11425e-20
2.37526e-21
3.83234e-22
5.47823e-23
6.70655e-24
2.04797e-24
7.32151e-25
1.78098e-25
1.31495e-26
1.94957e-28
1.23485e-30
7.52832e-31
4.26642e-30
2.42754e-29
2.73525e-28
1.12811e-26
8.99143e-26
3.05982e-25
2.33274e-23
3.80717e-21
7.98469e-21
6.85464e-21
3.05396e-21
9.06145e-22
1.83108e-22
2.82078e-23
3.85859e-24
4.50099e-25
1.37996e-25
4.84644e-26
1.05955e-26
7.25916e-28
9.87697e-30
5.99008e-32
7.44645e-32
3.57057e-31
1.8377e-30
2.05886e-29
6.32895e-28
6.88274e-27
6.16479e-27
1.57693e-24
3.58413e-22
6.5186e-22
5.44569e-22
2.40137e-22
6.74987e-23
1.2977e-23
1.91803e-24
2.45899e-25
2.82583e-26
8.57384e-27
2.93518e-27
5.83859e-28
3.70621e-29
4.59926e-31
3.45788e-33
6.66175e-33
3.42708e-32
1.5804e-31
1.43185e-30
3.31521e-29
3.21045e-28
4.13778e-28
5.59606e-26
3.14232e-23
4.8782e-23
3.98293e-23
1.73084e-23
4.63499e-24
8.5052e-25
1.21393e-25
1.39047e-26
1.65649e-27
4.93259e-28
1.63964e-28
3.00995e-29
1.75998e-30
1.97677e-32
2.40642e-34
6.91816e-34
3.16748e-33
1.26604e-32
6.60343e-32
1.5582e-30
1.43168e-29
1.73538e-29
3.49922e-27
2.54521e-24
3.37504e-24
2.69891e-24
1.15129e-24
2.95281e-25
5.1834e-26
7.16709e-27
7.06113e-28
9.08139e-29
2.63813e-29
8.48002e-30
1.45848e-30
7.79992e-32
7.8731e-34
1.92574e-35
6.81693e-35
2.79265e-34
1.00436e-33
4.74566e-33
6.75936e-32
5.87128e-31
5.92883e-31
1.80978e-28
1.90982e-25
2.17637e-25
1.70296e-25
7.11971e-26
1.75575e-26
2.95258e-27
3.93663e-28
3.44376e-29
4.66907e-30
1.31694e-30
4.07838e-31
6.64208e-32
3.23235e-33
2.92241e-35
1.6302e-36
6.24074e-36
2.38107e-35
7.98139e-35
3.08917e-34
2.84118e-33
2.0785e-32
1.94019e-32
7.66497e-30
1.34225e-26
1.31665e-26
1.00592e-26
4.12166e-27
9.79798e-28
1.57975e-28
2.02192e-29
1.60907e-30
2.25784e-31
6.1613e-32
1.83269e-32
2.83954e-33
1.25518e-34
1.02125e-36
1.35758e-37
5.34666e-37
1.95693e-36
6.26168e-36
2.02866e-35
1.20995e-34
6.65813e-34
6.87745e-34
2.89087e-31
8.91518e-28
7.51406e-28
5.59814e-28
2.24738e-28
5.15831e-29
7.97751e-30
9.75008e-31
7.1975e-32
1.03035e-32
2.71302e-33
7.73174e-34
1.14008e-34
4.58164e-36
3.42562e-38
1.07405e-38
4.29274e-38
1.53906e-37
4.78691e-37
1.37062e-36
5.57498e-36
2.16739e-35
3.41679e-35
1.02024e-32
5.60917e-29
4.06488e-29
2.95529e-29
1.16049e-29
2.5743e-30
3.82005e-31
4.42706e-32
3.08505e-33
4.45369e-34
1.12916e-34
3.07683e-35
4.31104e-36
1.57911e-37
1.14461e-39
8.00288e-40
3.2376e-39
1.15215e-38
3.53069e-38
9.42571e-38
2.93892e-37
8.66304e-37
3.15536e-36
3.04738e-34
3.33765e-30
2.09365e-30
1.48854e-30
5.70216e-31
1.22321e-31
1.74228e-32
1.89594e-33
1.26921e-34
1.83052e-35
4.4607e-36
1.16036e-36
1.5422e-37
5.16613e-39
4.04397e-41
5.63384e-41
2.30351e-40
8.19462e-40
2.49782e-39
6.46073e-39
1.77271e-38
5.21755e-38
4.5275e-37
1.8182e-35
1.87557e-31
1.03077e-31
7.183e-32
2.67713e-32
5.5556e-33
7.59856e-34
7.66759e-35
5.0222e-36
7.18111e-37
1.67921e-37
4.16563e-38
5.24584e-39
1.61318e-40
1.60516e-42
3.7747e-42
1.55413e-41
5.54481e-41
1.69204e-40
4.3472e-40
1.17841e-39
4.75973e-39
7.32158e-38
2.11373e-36
9.96427e-33
4.86723e-33
3.32923e-33
1.20521e-33
2.42007e-34
3.17798e-35
2.9461e-36
1.9156e-37
2.69831e-38
6.04588e-39
1.42915e-39
1.7049e-40
4.83312e-42
7.31629e-44
2.41209e-43
9.99622e-43
3.58134e-42
1.0993e-41
2.85639e-41
8.44761e-41
5.87522e-40
1.55916e-38
6.46094e-37
0.787688
0.761866
0.683615
0.641276
0.965057
0.885274
0.747079
0.59105
0.27497
0.00329556
2.09382e-08
2.09645e-08
-4.03927e-21
2.76749e-17
1.94027e-07
1.91541e-07
1.46442e-05
1.99903e-22
2.24493e-18
1.18537e-10
7.26932e-11
1.64737e-10
1.28022e-09
3.43921e-09
1.07347e-10
3.85999e-08
1.17634e-07
6.6067e-08
9.42071e-07
3.17953e-08
2.56806e-07
8.55058e-08
1.29771e-05
6.40046e-06
3.92027e-07
1.02037e-07
1.30101e-05
1.29799e-05
6.25767e-06
3.13404e-07
1.69705e-06
1.01065e-05
1.14247e-05
4.20418e-06
1.16842e-07
5.96699e-07
5.41507e-06
2.29783e-06
8.9459e-09
5.95943e-08
1.13427e-07
1.91957e-07
1.11148e-08
2.56875e-08
5.15976e-08
9.01192e-08
8.30718e-09
2.88993e-08
5.83237e-08
4.77494e-08
4.05049e-09
2.21144e-08
5.72855e-08
1.32099e-08
8.84939e-10
8.28781e-09
1.1599e-08
7.41655e-11
1.32774e-10
3.82024e-10
7.16445e-10
4.06481e-12
2.4228e-11
9.09062e-11
4.02279e-11
1.93749e-12
4.0191e-12
3.37407e-12
2.60357e-12
9.49658e-13
5.04043e-13
4.08157e-13
2.57046e-13
6.61093e-13
4.87146e-14
3.16744e-14
1.16918e-13
3.48017e-13
5.45646e-15
9.64864e-15
3.14761e-14
1.41203e-13
8.41065e-16
1.528e-15
9.55662e-15
2.89964e-14
1.68324e-16
3.72826e-16
1.34016e-15
7.27112e-15
2.61251e-17
3.92472e-17
2.56303e-16
8.75733e-16
3.51582e-18
5.89915e-18
2.34932e-17
1.40347e-16
3.90018e-19
3.52129e-19
2.69987e-18
1.47065e-17
3.57918e-20
3.96413e-20
1.41582e-19
1.28156e-18
3.1045e-21
1.51261e-21
1.22697e-20
9.6072e-20
2.20386e-22
1.41686e-22
7.22695e-22
6.03635e-21
1.02021e-23
7.6827e-24
3.77285e-23
3.33832e-22
6.25834e-25
4.23074e-25
1.718e-24
1.59482e-23
3.34155e-26
2.02608e-26
7.32873e-26
6.49091e-25
1.50851e-27
8.28139e-28
2.86035e-27
2.1427e-26
5.93625e-29
3.0072e-29
1.01417e-28
6.61113e-28
2.13025e-30
1.04104e-30
3.65873e-30
2.23594e-29
7.30136e-32
4.99449e-32
2.72368e-31
1.96207e-30
2.84572e-33
7.57022e-33
6.76351e-32
6.02227e-31
2.37566e-34
2.12162e-33
2.26739e-32
2.31237e-31
5.02727e-35
7.0573e-34
9.61847e-33
1.23792e-31
2.57146e-35
4.58178e-34
7.34737e-33
9.99872e-32
0.471972
0.149517
0.0820094
0.0137649
0.125027
0.553843
0.967718
0.98594
0.935186
0.877976
0.298676
4.5285e-09
2.47512e-07
1.11548e-06
1.78158e-07
7.16758e-08
1.72911e-08
2.55035e-13
0.182584
0.00161209
3.28571e-12
1.18293e-11
1.1185e-07
1.04705e-07
0.121362
0.570603
0.941153
0.969553
0.96951
0.867368
0.136226
1.02639e-25
-9.13836e-25
-2.56415e-25
-2.61387e-11
-1.86799e-27
0.00020154
0.228151
2.09382e-08
5.50547e-08
4.48193e-07
8.93242e-07
7.0219e-07
6.91268e-07
0.181208
0.521662
0.72996
0.675168
0.649811
0.527462
0.367873
0.186439
0.0885499
0.109679
0.181869
0.0844731
0.41454
1.46449e-07
5.89219e-08
1.16134e-06
2.03841e-06
2.03227e-06
1.02235e-06
1.85258e-11
0.108423
0.270034
0.366434
0.404783
0.336464
0.458655
0.586999
0.622453
0.623144
0.559281
0.399665
0.640899
3.02382e-10
1.64081e-08
3.86986e-07
1.88546e-06
2.03841e-06
1.61308e-06
1.09027e-11
-9.6758e-21
3.51223e-20
0.0158444
0.0586538
0.128632
0.13013
0.268268
0.475931
0.597035
0.799209
0.786124
0.811866
6.60262e-10
3.20003e-09
4.00143e-09
2.66802e-07
1.66476e-06
1.66687e-06
4.30627e-07
4.24008e-10
-1.3239e-18
-1.52946e-20
0.000256715
0.0080671
0.00935501
0.0184031
0.037709
0.268066
0.79912
0.903872
0.775265
2.452e-13
2.45194e-13
4.23352e-13
8.30615e-11
9.45856e-08
8.49078e-07
9.61758e-07
7.80111e-07
7.16622e-09
-4.68832e-15
-6.74584e-23
3.65255e-25
-1.39152e-25
1.49328e-24
-8.50385e-09
0.00116446
0.748792
0.903629
0.595891
2.45194e-13
2.45233e-13
3.07077e-11
4.04743e-11
4.58649e-11
2.98314e-08
6.54363e-07
1.23414e-06
1.23222e-06
6.66764e-07
9.24883e-08
5.0101e-08
5.07263e-07
5.31218e-06
2.25938e-05
-9.58063e-12
0.671962
0.901544
0.589678
5.55985e-08
9.5628e-09
1.96338e-11
1.09285e-10
1.37828e-10
1.06403e-10
1.04722e-10
2.45788e-07
5.73269e-07
9.11823e-07
9.03829e-07
4.35179e-07
4.55777e-07
1.71261e-06
2.25841e-05
-1.49229e-09
0.484564
0.906598
0.211929
1.32483e-07
8.32017e-08
2.02566e-11
1.07921e-10
2.11895e-10
2.12949e-10
1.07758e-10
7.78721e-12
9.56818e-12
8.46744e-12
9.59643e-12
8.57791e-12
2.21961e-07
3.93665e-06
1.70792e-05
7.05684e-06
0.164339
0.885335
6.47162e-05
2.18816e-07
3.28045e-07
1.96338e-11
5.07928e-11
1.4328e-10
2.16037e-10
2.44487e-10
2.38869e-10
2.09402e-10
1.8646e-10
1.72399e-10
9.9437e-12
1.04645e-11
2.07591e-06
2.09763e-05
3.13389e-05
0.0798046
0.887457
6.4443e-05
1.08022e-06
1.9898e-06
2.74208e-08
4.94302e-11
7.13406e-11
8.7681e-11
1.07901e-10
1.37982e-10
1.70125e-10
1.97876e-10
7.38635e-10
6.83539e-09
8.08023e-12
5.35058e-06
2.25199e-05
3.23634e-05
0.0565963
0.3654
2.06064e-05
1.47061e-07
2.07555e-06
1.53788e-07
1.25653e-09
2.48311e-10
8.40953e-11
4.17808e-11
3.65542e-11
3.6431e-11
3.6704e-11
3.75789e-11
5.09889e-08
1.79461e-07
1.13888e-05
6.56356e-05
0.000534136
0.00203284
0.0020004
2.03798e-05
1.05644e-07
1.55675e-06
8.23711e-07
1.95502e-08
1.78029e-09
5.39014e-10
7.95323e-11
3.45319e-11
2.98103e-11
2.96244e-11
4.70237e-11
5.13794e-10
3.85554e-09
1.03592e-11
1.03855e-11
1.03113e-11
1.14238e-11
1.09199e-11
1.13453e-06
2.23839e-08
1.50363e-06
1.53255e-06
1.53117e-07
7.5826e-09
1.80899e-09
3.99673e-10
8.35107e-11
4.63535e-11
3.69864e-11
3.68395e-11
1.90122e-11
2.30529e-11
4.50038e-11
7.92016e-11
1.0211e-10
4.23341e-10
1.3379e-08
2.33168e-07
1.90761e-08
5.42625e-07
5.57443e-07
8.79274e-08
1.13465e-08
3.75742e-09
1.4211e-09
2.34818e-10
6.84728e-11
4.02361e-11
2.40984e-11
1.90288e-11
4.916e-11
2.11899e-10
3.89584e-10
4.16825e-10
2.74556e-10
3.70332e-14
3.63682e-14
3.86165e-08
1.82862e-07
4.90681e-08
2.78117e-09
2.86615e-09
3.6173e-09
2.66827e-09
8.10727e-10
1.24651e-10
6.27112e-11
3.9947e-11
1.65941e-11
8.12272e-12
3.79185e-12
1.61275e-12
5.62926e-13
4.59663e-13
2.32804e-13
3.57209e-14
7.29113e-09
4.22503e-09
7.6106e-11
3.31559e-10
1.97771e-09
3.31156e-09
2.71839e-09
1.24412e-09
2.35069e-10
7.62729e-11
5.64621e-11
3.02377e-11
7.94845e-12
4.01189e-12
3.67175e-12
4.89655e-12
3.77145e-12
3.64519e-13
3.4404e-14
4.11095e-12
3.78762e-12
7.33532e-11
4.73935e-10
1.58579e-09
2.05665e-09
1.67735e-09
9.13723e-10
3.03545e-10
8.21167e-11
5.98881e-11
4.43703e-11
2.0267e-11
1.17215e-11
1.34677e-11
1.34733e-11
6.25807e-12
3.22235e-13
1.99829e-14
2.94962e-12
1.51559e-11
8.83605e-11
4.3749e-10
1.06354e-09
1.04194e-09
7.9331e-10
3.91814e-10
1.12272e-10
5.60995e-11
4.07041e-11
5.13119e-11
5.04594e-11
4.08158e-11
4.05623e-11
3.32875e-11
9.28261e-12
4.31378e-13
2.0815e-14
3.01661e-12
1.6174e-11
7.78432e-11
3.10412e-10
4.92654e-10
4.1947e-10
2.72753e-10
1.05617e-10
3.80573e-11
1.90335e-11
1.45309e-11
2.23894e-11
5.06017e-11
6.45959e-11
6.48124e-11
5.32353e-11
1.25793e-11
6.80226e-13
2.85577e-14
2.05671e-12
1.05195e-11
4.86995e-11
1.44799e-10
1.61126e-10
1.25469e-10
6.22074e-11
2.08094e-11
8.38764e-12
4.8835e-12
3.54826e-12
4.65985e-12
1.42239e-11
4.83883e-11
6.63016e-11
6.32583e-11
1.37961e-11
8.15906e-13
2.55531e-14
1.2285e-12
4.70663e-12
2.09432e-11
4.3739e-11
4.13202e-11
2.7403e-11
1.06364e-11
3.1658e-12
1.21233e-12
7.18746e-13
7.29862e-13
9.83359e-13
5.23357e-12
2.03889e-11
5.24002e-11
5.99093e-11
8.53919e-12
4.90393e-13
1.28016e-14
4.25276e-13
1.82489e-12
6.41946e-12
9.56365e-12
8.15324e-12
4.38968e-12
1.3103e-12
3.26244e-13
1.00662e-13
6.9448e-14
7.40377e-14
1.49691e-13
6.09034e-13
5.99618e-12
3.61788e-11
4.2476e-11
3.99472e-12
1.78421e-13
9.7831e-15
8.81343e-14
4.40952e-13
1.28094e-12
1.53055e-12
1.16247e-12
5.25381e-13
1.23748e-13
2.06827e-14
3.62438e-15
2.95458e-15
3.98555e-15
4.12954e-14
3.06975e-13
3.19781e-12
2.42616e-11
2.58488e-11
2.68637e-12
1.13602e-13
8.05725e-15
1.54674e-14
7.65752e-14
1.93791e-13
1.9793e-13
1.33081e-13
4.63217e-14
6.89867e-15
5.01458e-16
1.51876e-17
1.84681e-17
3.93176e-17
1.02937e-14
7.04806e-14
1.74467e-12
2.0906e-11
1.55383e-11
2.43888e-12
1.2106e-13
7.95358e-15
1.63259e-15
9.45453e-15
1.9728e-14
1.78517e-14
1.04093e-14
2.89127e-15
3.0083e-16
1.0524e-17
1.07789e-19
5.38043e-21
5.43649e-20
3.78877e-16
1.25418e-14
7.05173e-13
1.5714e-11
9.21202e-12
2.31163e-12
2.50783e-13
9.28931e-15
1.94699e-16
9.6673e-16
1.82715e-15
1.4619e-15
6.48919e-16
1.27918e-16
9.33766e-18
1.78889e-19
1.44771e-21
1.4656e-21
3.16808e-21
2.20076e-19
3.79227e-16
5.39974e-13
1.15857e-11
6.3299e-12
2.17849e-12
4.49434e-13
2.39272e-14
1.76776e-17
7.91745e-17
1.25286e-16
8.71394e-17
3.10889e-17
4.1463e-18
1.85834e-19
1.75451e-21
8.39222e-22
2.14355e-21
1.60299e-20
6.73073e-19
1.80467e-15
4.98286e-13
8.15048e-12
5.47911e-12
2.36204e-12
6.82341e-13
5.5171e-14
1.3224e-18
5.0903e-18
6.54787e-18
3.91398e-18
1.01493e-18
8.78057e-20
1.90931e-21
3.18859e-22
2.27461e-21
5.09753e-20
1.54162e-18
6.75237e-17
6.23862e-15
4.44325e-13
5.79307e-12
4.78967e-12
2.60301e-12
9.68865e-13
1.01041e-13
7.72477e-20
2.02658e-19
2.70137e-19
1.235e-19
2.30254e-20
1.11401e-21
6.79679e-23
3.17343e-22
1.29512e-20
3.85004e-19
1.92703e-17
1.67224e-15
2.21361e-14
3.87012e-13
4.38778e-12
4.15447e-12
2.70597e-12
1.15803e-12
1.64287e-13
3.89889e-21
9.94038e-21
8.05806e-21
3.37582e-21
3.37788e-22
1.93968e-23
5.4277e-23
1.56124e-21
5.61702e-20
1.77051e-18
8.99328e-17
3.34474e-15
5.45965e-14
3.63492e-13
3.09677e-12
3.43383e-12
2.62683e-12
1.16385e-12
2.06872e-13
1.64783e-22
3.49327e-22
2.25165e-22
6.20579e-23
4.93002e-24
1.08141e-23
1.24405e-22
4.07029e-21
1.17984e-19
3.40705e-18
2.03774e-16
5.38476e-15
6.79763e-14
3.37485e-13
2.09606e-12
2.67148e-12
2.09356e-12
1.02017e-12
1.76123e-13
5.7022e-24
9.99308e-24
5.22805e-24
8.51068e-25
1.03835e-24
6.85788e-24
9.52162e-23
2.38785e-21
5.55851e-20
9.23188e-19
4.22783e-17
3.06629e-15
4.51934e-14
3.25427e-13
1.3072e-12
1.65313e-12
1.25529e-12
5.42515e-13
1.13833e-13
1.64431e-25
2.46996e-25
9.73816e-26
1.04321e-25
7.22228e-25
5.03371e-24
3.74567e-23
4.85587e-22
9.29726e-21
1.56783e-19
3.30359e-18
4.94673e-16
1.16418e-14
1.69352e-13
6.85364e-13
6.88212e-13
5.04777e-13
2.12762e-13
3.63435e-14
4.13841e-27
5.36815e-27
8.10588e-27
6.35799e-26
5.53097e-25
4.00766e-24
2.49631e-23
1.67596e-22
1.37987e-21
1.79278e-20
1.87416e-19
1.6602e-17
1.41511e-15
2.18647e-14
1.58777e-13
1.72449e-13
1.30578e-13
5.58764e-14
1.05202e-14
1.20585e-28
4.50263e-28
3.86954e-27
3.99686e-26
3.79379e-25
2.77328e-24
1.84456e-23
1.03306e-22
5.31091e-22
2.6087e-21
2.63514e-20
3.6579e-19
4.57597e-17
1.84753e-15
1.36641e-14
2.29551e-14
2.15897e-14
9.09102e-15
1.90343e-15
1.5141e-29
1.76384e-28
2.17435e-27
2.41195e-26
2.41846e-25
1.79476e-24
1.18056e-23
6.79906e-23
3.18059e-22
1.24277e-21
4.42292e-21
2.79724e-20
8.88803e-19
5.08068e-17
1.27224e-15
1.91835e-15
1.88807e-15
1.03129e-15
2.29931e-16
5.57225e-30
8.01953e-29
1.08668e-27
1.22678e-26
1.24393e-25
9.60428e-25
6.57035e-24
3.8043e-23
1.70151e-22
6.37359e-22
2.07385e-21
5.39628e-21
1.40259e-20
1.51377e-19
2.15883e-17
3.50921e-17
4.8876e-17
5.00777e-17
4.62984e-17
2.30448e-30
3.80592e-29
5.78403e-28
7.19642e-27
7.06387e-26
5.33708e-25
3.33234e-24
1.69823e-23
7.45651e-23
2.56145e-22
7.79281e-22
1.81521e-21
3.74506e-21
4.03074e-21
5.9846e-21
8.6636e-20
1.05033e-18
7.09852e-18
2.26326e-17
1.64209e-30
3.41061e-29
5.33873e-28
6.5106e-27
6.07016e-26
4.3778e-25
2.47306e-24
1.07501e-23
3.6032e-23
1.02376e-22
2.46994e-22
4.65221e-22
9.21464e-22
6.9125e-22
1.20074e-21
1.90576e-21
1.71861e-19
2.4566e-18
8.61172e-18
1.14196e-30
1.88417e-29
2.71736e-28
2.82646e-27
2.03732e-26
1.14209e-25
4.85193e-25
1.67193e-24
4.80541e-24
1.16314e-23
2.18816e-23
3.51135e-23
5.28559e-23
2.09843e-23
3.41105e-23
3.96779e-23
1.36842e-20
2.25599e-19
6.93278e-19
)
;

boundaryField
{
    leftWall
    {
        type            zeroGradient;
    }
    rightWall
    {
        type            zeroGradient;
    }
    lowerWall
    {
        type            zeroGradient;
    }
    atmosphere
    {
        type            inletOutlet;
        inletValue      uniform 0;
        value           nonuniform List<scalar> 
46
(
9.96427e-33
4.86723e-33
3.32923e-33
1.20521e-33
2.42007e-34
3.17798e-35
2.9461e-36
1.9156e-37
2.69831e-38
6.04588e-39
1.42915e-39
1.7049e-40
4.83312e-42
7.31629e-44
2.41209e-43
9.99622e-43
3.58134e-42
1.0993e-41
2.85639e-41
8.44761e-41
5.87522e-40
1.55916e-38
6.46094e-37
2.57146e-35
4.58178e-34
7.34737e-33
9.99872e-32
1.14196e-30
1.88417e-29
2.71736e-28
0
0
0
0
0
0
0
0
0
0
0
0
0
0
0
0
)
;
    }
    defaultFaces
    {
        type            empty;
    }
}


// ************************************************************************* //
