/*--------------------------------*- C++ -*----------------------------------*\
| =========                 |                                                 |
| \\      /  F ield         | OpenFOAM: The Open Source CFD Toolbox           |
|  \\    /   O peration     | Version:  2312                                  |
|   \\  /    A nd           | Website:  www.openfoam.com                      |
|    \\/     M anipulation  |                                                 |
\*---------------------------------------------------------------------------*/
FoamFile
{
    version     2.0;
    format      ascii;
    arch        "LSB;label=32;scalar=64";
    class       volScalarField;
    location    "0.75";
    object      alpha.galistan;
}
// * * * * * * * * * * * * * * * * * * * * * * * * * * * * * * * * * * * * * //

dimensions      [0 0 0 0 0 0 0];

internalField   nonuniform List<scalar> 
2268
(
1
1
1
1
1
1
1
1
1
1
1
1
1
1
1
1
1
1
1
1
1
0.99999
0.999927
1
1
1
1
1
1
1
1
1
1
1
1
1
1
1
1
1
1
1
1
1
0.999989
0.999927
0.908849
0.916603
0.924026
0.937946
0.958964
0.987324
1
1
1
1
1
1
1
1
1
1
1
1
1
1
1
0.999997
0.999981
0.175677
0.187659
0.199875
0.226243
0.275585
0.371728
0.577876
0.863204
1
1
1
1
1
1
1
1
1
1
1
1
1
1
1
-4.02918e-21
-2.80204e-20
2.33435e-45
8.7068e-32
-1.71201e-19
-3.09616e-14
0.015106
0.203422
0.770715
1
1
1
1
1
1
1
1
1
1
1
1
0.999996
0.999995
-1.30813e-20
4.19668e-34
1.5323e-16
3.06838e-13
1.21826e-11
6.27496e-11
3.18347e-10
3.17419e-10
0.243862
0.899502
1
1
1
1
1
1
1
1
1
1
1
0.999959
0.999873
-2.13848e-20
-1.02722e-19
9.89923e-21
5.86576e-16
4.43512e-13
1.29799e-11
8.55294e-11
1.19431e-09
0.0175665
0.575552
0.999624
1
1
1
1
1
0.998227
0.994336
0.993334
0.995904
0.998631
0.999467
0.999871
-1.33838e-20
-5.58724e-20
-7.34617e-20
7.73138e-20
1.36185e-15
6.88722e-13
2.45481e-11
1.45365e-10
1.31476e-10
0.18908
0.85918
1
0.986615
0.927398
0.814552
0.71909
0.643458
0.592503
0.583734
0.611707
0.654258
0.677544
0.730003
0.411908
0.384267
0.301859
0.228201
0.430472
0.842209
0.943853
0.862022
0.78742
0.782316
0.781538
0.899116
0.927364
0.565246
0.376512
0.383562
0.383572
0.370859
0.346811
0.4114
0.0916596
0.0945965
0.192501
0.285575
0.768374
0.955284
0.955276
0.955189
0.946339
0.915842
0.926213
0.927563
0.580987
0.378527
0.238056
0.175398
0.139453
0.0786094
0.0976992
0.141434
0.33848
0.552092
0.552916
0.519072
0.559065
0.700275
0.706197
0.555865
0.381597
0.483025
0.864626
0.545549
0.298572
0.0811186
0.0307586
0.0385658
0.0739025
0.0295195
0.348463
0.348919
0.188343
0.0995887
0.0518628
0.0535889
0.0656113
0.0686428
0.0545198
0.00442243
0.15229
0.751469
0.45755
0.0829571
0.00266006
0.00482544
0.0389005
0.0963554
0.209341
0.238632
0.0946805
0.00368697
0.00391218
0.00542688
0.00697348
0.00671377
0.00132594
0.00132497
0.00132593
0.0992015
0.485359
0.317612
0.04138
4.16523e-06
-1.90041e-20
0.0245627
0.183676
0.29861
0.12556
-4.76148e-06
-2.01902e-06
-2.92248e-07
0.000449512
0.00633108
0.00635176
0.0380878
0.00333663
0.0013277
0.132793
0.208481
0.319949
0.0382038
-2.40888e-23
-1.58549e-20
0.00898014
0.18014
0.274682
0.0555079
0.0028074
2.75424e-13
1.11495e-11
-5.42231e-16
0.0037511
0.0106437
0.0577555
0.0069459
0.00264242
0.134782
0.180503
0.180695
0.0124797
-3.0654e-09
0.000508174
9.67655e-05
0.173624
0.131216
0.00497521
2.33648e-08
5.8605e-08
8.48718e-09
-3.46685e-22
6.09422e-06
0.0077669
0.066644
0.0662478
0.0292027
0.0831516
0.178499
0.0105999
4.83026e-05
2.40551e-05
0.000572418
1.39296e-12
0.173717
-2.25318e-21
-1.3953e-21
-1.90875e-21
3.27073e-22
1.00839e-17
1.4266e-14
2.12209e-12
4.7782e-11
8.94777e-10
0.00102179
0.140436
0.426181
0.463199
0.300893
0.169778
0.117689
0.0890927
0.0711561
0.0686746
0.0798386
0.097572
0.104993
0.127582
-1.56017e-21
3.96759e-40
4.14621e-21
3.11349e-20
1.38269e-19
7.64575e-17
2.02093e-14
3.19831e-12
6.17676e-11
2.11542e-19
4.43819e-17
9.12381e-11
2.82088e-13
1.40914e-26
3.14786e-28
-3.8473e-26
6.29865e-28
1.52446e-25
-3.25747e-30
-2.22367e-29
-2.90945e-42
-7.46005e-33
-4.40572e-20
-8.7269e-22
-4.48438e-23
1.03306e-21
1.35665e-20
8.35863e-19
4.47446e-16
2.11821e-14
2.20402e-13
2.76889e-12
1.55274e-11
1.22407e-11
1.07626e-11
3.08776e-15
1.71564e-08
5.00359e-08
4.80158e-08
9.35997e-09
1.69852e-11
1.37843e-11
3.84176e-11
8.26302e-23
9.38381e-14
1.09852e-26
-4.02948e-22
2.93505e-28
9.31107e-22
1.41147e-20
7.68259e-18
2.07883e-16
3.76096e-15
4.02419e-14
3.52129e-13
2.5208e-12
2.82636e-12
2.82098e-12
2.24651e-15
1.13398e-08
1.42355e-08
8.15983e-09
2.99455e-09
5.37015e-10
4.95823e-11
1.86797e-09
1.55058e-07
4.31457e-07
3.28105e-07
-1.68356e-22
4.19387e-23
6.51678e-22
2.93373e-21
3.08317e-19
1.22277e-17
1.6114e-16
2.23259e-15
4.41658e-14
2.31723e-13
3.10259e-13
1.79906e-13
2.28109e-15
2.23171e-15
2.23275e-15
2.23614e-15
2.2373e-15
1.2213e-12
-4.6639e-14
-4.48931e-12
2.20461e-07
4.06342e-07
3.44221e-08
-5.17373e-23
2.71962e-23
4.11867e-22
2.60028e-21
3.67465e-20
1.01289e-18
2.61383e-17
2.61196e-16
2.28011e-15
3.6981e-15
1.73022e-15
1.46333e-15
6.93129e-15
6.76196e-14
1.752e-13
7.7158e-13
2.47791e-15
1.21576e-10
1.31958e-07
4.47765e-07
3.59754e-07
1.20398e-08
2.1872e-09
4.97465e-22
1.39653e-21
2.49039e-21
6.76736e-21
3.91491e-20
1.7875e-19
8.50997e-19
4.25846e-18
2.51238e-17
1.00108e-16
2.44342e-16
6.07423e-15
6.40009e-14
6.26049e-13
5.33779e-12
3.05737e-11
1.20173e-10
1.20237e-10
1.19975e-07
6.27915e-07
6.29782e-07
1.78123e-07
3.32183e-10
1.8973e-21
5.03289e-21
7.66241e-21
1.53932e-20
4.15538e-20
1.39567e-19
3.00112e-19
3.90891e-19
5.2018e-19
7.91733e-19
7.10627e-18
1.29024e-16
4.83088e-15
8.006e-13
1.64002e-11
7.03625e-11
1.91629e-10
1.30615e-10
2.92658e-08
4.85784e-07
6.38428e-07
4.62653e-07
3.45321e-10
2.1599e-21
4.89951e-21
8.43386e-21
1.62607e-20
3.02663e-20
5.22031e-20
5.30029e-20
3.44024e-20
5.56385e-21
5.64854e-23
1.35867e-21
2.16985e-19
1.66371e-16
9.72949e-15
7.4939e-13
2.44967e-11
1.95144e-10
3.92515e-10
1.06833e-09
3.86131e-08
2.87361e-07
4.59766e-07
3.08744e-08
1.75924e-21
3.39012e-21
5.58913e-21
7.01678e-21
4.84274e-21
3.32117e-21
1.35131e-21
9.38732e-22
5.12557e-24
2.30651e-22
1.50345e-20
1.00066e-18
9.3412e-17
1.40522e-15
6.11261e-14
2.59569e-12
7.30594e-11
4.29384e-10
8.7354e-10
4.49048e-09
6.40205e-08
1.30198e-07
2.09283e-07
1.21066e-21
1.21261e-21
1.25869e-21
1.19292e-21
9.92084e-22
2.75364e-23
6.05663e-24
1.70344e-25
1.42969e-23
5.23411e-22
3.8056e-20
5.98698e-19
5.63867e-18
5.03958e-16
1.18184e-14
2.60803e-13
6.75901e-12
1.95948e-10
7.21823e-10
1.18913e-09
4.4802e-09
3.86293e-08
1.42313e-07
7.73998e-22
2.71442e-22
6.60595e-23
4.11144e-23
5.30995e-23
6.2527e-26
2.35825e-28
1.62318e-29
1.13884e-27
1.50656e-23
9.322e-22
6.55454e-20
1.94271e-18
4.87981e-17
8.93697e-16
1.86679e-14
2.85299e-13
1.66305e-11
3.23329e-10
9.2744e-10
1.25491e-09
1.05521e-09
5.64013e-08
4.43471e-22
1.22594e-22
7.53659e-24
1.9989e-24
1.9403e-24
4.05395e-26
2.37956e-27
4.53644e-29
1.55739e-30
3.13738e-30
1.14827e-24
6.49114e-22
1.03511e-19
3.02037e-18
6.04088e-17
1.15139e-15
1.68058e-14
5.11326e-13
3.74112e-11
4.88178e-10
1.08128e-09
1.04635e-09
1.06421e-08
3.59121e-22
8.16931e-23
7.58776e-24
2.30292e-24
3.9243e-25
2.34807e-26
2.80593e-28
1.06653e-29
5.06131e-31
6.34022e-32
1.59517e-27
6.35258e-24
3.65056e-21
1.18577e-19
1.04591e-18
4.40732e-17
1.84204e-15
5.33527e-14
1.53323e-12
9.2076e-11
6.60378e-10
1.04004e-09
1.34684e-09
2.18492e-22
5.09973e-23
7.94552e-24
1.83401e-24
1.92028e-25
1.02163e-26
1.80351e-28
9.34026e-30
3.78557e-31
3.80393e-32
1.97506e-30
3.3025e-25
1.07165e-22
4.53334e-21
6.73046e-20
5.23853e-19
1.5603e-16
4.38693e-15
1.57232e-13
5.25216e-12
1.58606e-10
6.74005e-10
8.2466e-10
1.20907e-22
2.90463e-23
4.61026e-24
9.47733e-25
1.44922e-25
4.35265e-27
3.11057e-28
1.78054e-29
2.07016e-30
1.28484e-31
9.41659e-33
5.28621e-27
2.72324e-24
1.60487e-22
3.55395e-21
5.45004e-20
1.4763e-18
1.02626e-16
4.66725e-15
5.45762e-14
7.57994e-12
1.42837e-10
2.75823e-10
5.30941e-23
1.03334e-23
1.244e-24
1.77862e-25
1.50656e-26
1.25129e-27
1.94875e-28
2.23748e-29
1.53182e-30
7.37093e-32
6.04166e-33
1.26136e-28
1.23306e-25
8.01262e-24
2.08428e-22
4.12491e-21
6.2902e-21
2.73196e-19
1.05021e-17
6.33715e-17
3.56947e-14
5.44444e-12
2.38753e-11
9.63587e-24
1.62175e-24
2.27054e-25
3.88156e-26
3.79523e-27
4.91968e-28
6.39782e-29
5.75523e-30
3.7512e-31
1.84137e-32
5.01887e-33
5.14521e-30
1.51807e-26
1.16988e-24
3.11008e-23
5.45601e-22
5.33379e-21
1.06459e-19
2.82966e-18
4.30169e-17
2.35985e-15
1.15334e-13
1.16134e-12
8.89428e-25
1.86883e-25
4.68977e-26
6.84782e-27
9.48514e-28
1.52728e-28
1.32663e-29
1.08864e-30
7.01673e-32
3.5875e-33
4.9913e-33
3.45712e-31
2.15883e-27
2.23013e-25
7.42219e-24
1.54723e-22
2.81077e-21
7.22097e-20
2.52307e-18
5.20387e-17
3.6477e-16
1.51081e-14
2.08615e-13
1.39521e-25
3.91961e-26
9.43265e-27
1.29082e-27
2.10525e-28
2.64986e-29
2.31743e-30
1.52604e-31
1.0251e-32
6.86919e-34
4.73825e-33
1.24569e-31
2.7091e-28
3.62988e-26
1.50825e-24
3.97397e-23
8.76834e-22
2.32229e-20
1.20609e-18
3.61855e-17
2.74314e-16
1.45607e-15
4.63432e-14
1.02341e-26
5.11083e-27
1.18068e-27
2.22892e-28
3.13203e-29
3.57054e-30
3.01092e-31
1.92276e-32
1.29135e-33
2.29931e-34
4.00475e-33
9.02195e-32
3.32361e-29
5.12324e-27
2.49634e-25
7.84238e-24
1.86121e-22
4.9477e-21
3.49777e-19
1.60099e-17
1.4102e-16
8.47005e-16
1.01779e-14
1.73705e-27
7.91431e-28
1.73807e-28
2.83971e-29
3.90693e-30
4.12602e-31
3.34179e-32
2.33189e-33
1.35842e-34
1.38675e-34
2.92267e-33
5.92005e-32
5.66452e-30
6.79063e-28
3.56124e-26
1.25126e-24
3.23945e-23
8.0826e-22
8.76847e-20
5.02037e-18
5.18019e-17
2.63244e-16
2.5608e-15
1.19772e-28
8.74693e-29
1.89222e-29
3.15463e-30
4.29908e-31
4.25168e-32
3.33251e-33
2.33503e-34
1.63756e-35
9.02913e-35
1.82127e-33
3.42545e-32
1.66425e-30
9.37593e-29
4.58789e-27
1.70455e-25
4.73631e-24
1.21276e-22
1.99642e-20
1.21853e-18
1.26825e-17
8.99039e-17
6.92825e-16
1.36969e-29
8.57185e-30
1.86535e-30
3.19057e-31
4.10797e-32
3.88704e-33
2.98256e-34
2.05204e-35
3.71271e-36
5.17508e-35
9.69369e-34
1.77972e-32
5.64879e-31
1.55574e-29
5.57723e-28
2.05721e-26
5.96857e-25
1.59862e-23
3.49732e-21
2.34972e-19
2.78791e-18
1.34677e-17
1.74737e-16
7.22836e-31
7.85378e-31
1.72574e-31
2.94457e-32
3.45317e-33
3.20607e-34
2.42625e-35
1.69342e-36
1.44493e-36
2.54398e-35
4.39619e-34
7.80644e-33
1.88097e-31
3.15808e-30
6.79811e-29
2.25792e-27
6.6438e-26
1.86084e-24
4.96069e-22
3.67267e-20
3.46563e-19
2.82249e-18
3.46173e-17
6.31452e-32
6.91769e-32
1.49526e-32
2.49285e-33
2.67152e-34
2.45335e-35
1.82956e-36
1.50039e-37
5.88957e-37
1.03827e-35
1.70836e-34
2.87881e-33
5.49147e-32
7.00902e-31
9.00676e-30
2.30522e-28
6.78773e-27
1.9248e-25
5.56485e-23
4.828e-21
5.64941e-20
2.15226e-19
5.21001e-18
2.27793e-33
5.7347e-33
1.19731e-33
1.91445e-34
1.94856e-35
1.76086e-36
1.29687e-37
1.90865e-38
2.0592e-37
3.50381e-36
5.53895e-35
8.93792e-34
1.41057e-32
1.42859e-31
1.35678e-30
2.31074e-29
6.28596e-28
1.80063e-26
5.59469e-24
4.21172e-22
4.3964e-21
3.19569e-20
5.77477e-19
1.54067e-34
4.44823e-34
8.90579e-35
1.33865e-35
1.33969e-36
1.18358e-37
8.72372e-39
3.77321e-39
6.01536e-38
9.96739e-37
1.52987e-35
2.35382e-34
3.19259e-33
2.89356e-32
2.20996e-31
2.42385e-30
5.33336e-29
1.50353e-27
4.37664e-25
3.97745e-23
5.11305e-22
1.38743e-21
6.83927e-20
6.1699e-36
3.17908e-35
6.25272e-36
8.62496e-37
8.62042e-38
7.42955e-39
5.70325e-40
8.507e-40
1.47994e-38
2.40184e-37
3.64521e-36
5.32227e-35
6.38753e-34
5.32582e-33
3.61963e-32
2.76747e-31
4.29558e-30
1.13842e-28
3.08589e-26
2.27721e-24
2.6352e-23
1.52012e-22
5.13593e-21
2.45224e-37
2.09622e-36
4.13703e-37
5.19196e-38
5.17869e-39
4.35154e-40
3.91262e-41
1.77814e-40
3.10825e-39
4.96466e-38
7.32491e-37
1.01955e-35
1.13261e-34
8.80193e-34
5.68832e-33
3.39128e-32
3.49524e-31
7.71489e-30
1.98007e-27
2.02013e-25
2.54717e-24
3.84327e-24
4.61509e-22
1.00126e-38
1.3001e-37
2.54283e-38
2.95176e-39
2.90626e-40
2.3784e-41
3.23781e-42
3.26042e-41
5.64841e-40
8.91824e-39
1.32038e-37
1.71662e-36
1.78581e-35
1.32622e-34
7.7164e-34
4.23977e-33
3.06811e-32
4.93357e-31
1.04536e-28
1.17538e-26
1.00895e-25
3.35653e-25
2.48397e-23
4.41409e-40
7.62767e-39
1.43843e-39
1.58658e-40
1.52281e-41
1.21568e-42
3.43811e-43
5.24196e-42
8.98787e-41
1.40756e-39
2.06461e-38
2.5872e-37
2.52085e-36
1.81179e-35
1.01922e-34
5.23775e-34
2.62865e-33
2.80809e-32
6.1164e-30
6.44036e-28
7.7436e-27
6.86502e-27
1.70723e-24
2.06021e-41
4.18636e-40
7.49067e-41
8.01426e-42
7.44075e-43
5.86173e-44
4.16937e-44
7.44998e-43
1.26589e-41
1.97123e-40
2.86098e-39
3.49267e-38
3.21148e-37
2.2557e-36
1.23533e-35
5.59843e-35
2.78173e-34
2.0099e-33
3.29829e-31
3.2685e-29
3.61563e-28
4.64982e-28
6.18353e-26
9.61497e-43
2.12944e-41
3.61177e-42
3.78497e-43
3.39093e-44
2.73043e-45
5.05266e-45
9.44634e-44
1.59356e-42
2.47164e-41
3.54948e-40
4.22995e-39
3.71683e-38
2.55888e-37
1.38122e-36
6.4969e-36
2.89419e-35
1.53372e-34
1.03503e-32
1.46673e-30
1.61338e-29
2.03495e-29
3.93755e-27
4.36681e-44
1.00444e-42
1.62374e-43
1.67032e-44
1.44489e-45
1.29295e-46
5.74098e-46
1.07822e-44
1.80882e-43
2.79756e-42
3.97486e-41
4.62403e-40
3.92744e-39
2.65561e-38
1.43857e-37
6.84687e-37
2.86779e-36
1.33684e-35
5.45608e-34
5.95524e-32
6.70803e-31
9.09439e-31
2.08926e-28
1.90713e-45
4.42377e-44
6.8487e-45
6.90824e-46
5.78257e-47
6.7309e-48
5.96369e-47
1.11754e-45
1.86625e-44
2.88019e-43
4.0477e-42
4.59837e-41
3.80573e-40
2.53831e-39
1.3877e-38
6.5638e-38
2.73974e-37
1.39696e-36
3.10109e-35
2.37282e-33
2.64135e-32
8.21567e-32
9.67901e-30
7.93077e-47
1.83385e-45
2.72411e-46
2.69039e-47
2.18683e-48
4.08321e-49
5.67464e-48
1.05983e-46
1.76346e-45
2.71652e-44
3.77447e-43
4.19136e-42
3.39782e-41
2.24528e-40
1.23394e-39
5.82127e-39
2.56717e-38
1.71951e-37
2.9702e-36
1.16526e-34
1.45835e-33
1.41474e-32
5.36955e-31
3.12542e-48
7.20464e-47
1.02643e-47
9.91823e-49
7.87577e-50
2.82306e-50
4.97638e-49
9.26262e-48
1.53697e-46
2.36315e-45
3.24472e-44
3.52596e-43
2.80946e-42
1.8436e-41
1.01361e-40
4.83114e-40
2.4216e-39
2.33031e-38
4.24098e-37
1.01984e-35
1.65326e-34
2.74532e-33
5.64458e-32
1.17054e-49
2.69677e-48
3.68024e-49
3.4797e-50
2.72978e-51
2.06502e-51
4.04877e-50
7.51061e-49
1.24384e-47
1.90833e-46
2.58811e-45
2.7554e-44
2.16343e-43
1.41005e-42
7.74364e-42
3.80683e-41
2.35665e-40
3.20976e-39
6.46829e-38
1.3836e-36
2.56769e-35
5.14825e-34
9.5377e-33
4.19682e-51
9.65741e-50
1.26171e-50
1.16778e-51
9.25078e-53
1.504e-52
3.07482e-51
5.68528e-50
9.40446e-49
1.43928e-47
1.92742e-46
2.01263e-45
1.56035e-44
1.00949e-43
5.55083e-43
2.90329e-42
2.37939e-41
4.25293e-40
9.30856e-39
2.03342e-37
4.15134e-36
9.24208e-35
1.94243e-33
1.45029e-52
3.32004e-51
4.15607e-52
3.76631e-53
3.14199e-54
1.05808e-53
2.19148e-52
4.04026e-51
6.68025e-50
1.01953e-48
1.34801e-47
1.38213e-46
1.05994e-45
6.80538e-45
3.7714e-44
2.18981e-43
2.44865e-42
5.28314e-41
1.23655e-39
2.85911e-38
6.4512e-37
1.56361e-35
3.97704e-34
4.84828e-54
1.09877e-52
1.32107e-53
1.17218e-54
1.10875e-55
7.09701e-55
1.47291e-53
2.7092e-52
4.48029e-51
6.81768e-50
8.89941e-49
8.97106e-48
6.8166e-47
4.34699e-46
2.45045e-45
1.66477e-44
2.50401e-43
6.13534e-42
1.53403e-40
3.86366e-39
1.02413e-37
3.2638e-36
1.3067e-34
0.205135
0.224831
0.280206
0.281235
-8.84185e-28
-5.28141e-26
2.80624e-26
1.46772e-25
6.62868e-09
7.6933e-08
8.34271e-08
6.13295e-08
5.16191e-10
2.94166e-09
4.66899e-09
1.01664e-09
4.23158e-10
3.25911e-10
3.64175e-10
5.11583e-10
1.68418e-09
2.52988e-09
2.70624e-09
2.71655e-09
1.43889e-09
3.08474e-09
3.07984e-09
3.08476e-09
7.63913e-10
1.99684e-09
2.56113e-09
2.53255e-09
4.03683e-10
4.99555e-10
1.57935e-09
2.41456e-09
8.28129e-08
6.26625e-10
4.75396e-10
1.00132e-09
2.38951e-07
1.69422e-07
4.54693e-10
4.83955e-10
2.0701e-07
2.31835e-07
8.97222e-08
2.15233e-09
9.30007e-08
1.67854e-07
7.23372e-08
9.79787e-09
1.02126e-08
6.1261e-08
5.23357e-08
1.29694e-08
1.38235e-10
4.81496e-09
1.73316e-08
1.07643e-08
1.43577e-10
2.15215e-11
4.92726e-10
2.46244e-09
4.69784e-11
2.25762e-11
8.13695e-12
1.08406e-10
5.52643e-12
5.70008e-12
2.96586e-12
2.95357e-12
8.87861e-13
1.22456e-12
6.36386e-13
7.62127e-13
1.58019e-13
1.27167e-13
1.95581e-13
2.6009e-13
2.99363e-14
4.44754e-14
7.31335e-14
1.74474e-13
7.20931e-15
1.21854e-14
4.1632e-14
8.86765e-14
2.1529e-15
5.04497e-15
1.28152e-14
3.8355e-14
5.48847e-16
9.97449e-16
4.24094e-15
9.33325e-15
1.25415e-16
2.59776e-16
7.0051e-16
2.62417e-15
2.10113e-17
3.12525e-17
1.47137e-16
3.85489e-16
3.01157e-18
4.92178e-18
1.54283e-17
6.86994e-17
3.51576e-19
3.214e-19
1.89887e-18
8.1137e-18
3.3709e-20
3.71786e-20
1.10664e-19
7.75642e-19
3.01841e-21
1.50416e-21
1.00062e-20
6.31524e-20
2.20567e-22
1.43806e-22
6.14086e-22
4.23355e-21
1.05623e-23
7.97941e-24
3.32014e-23
2.46578e-22
6.59942e-25
4.49389e-25
1.56799e-24
1.2281e-23
3.58615e-26
2.22511e-26
7.07241e-26
5.26213e-25
1.66392e-27
1.0502e-27
3.50456e-27
2.16402e-26
7.28973e-29
8.08891e-29
3.94374e-28
2.3865e-27
4.46782e-30
1.6767e-29
1.17552e-28
8.17974e-28
6.51194e-31
5.01633e-30
4.20731e-29
3.33356e-28
1.50206e-31
1.53625e-30
1.4515e-29
1.29269e-28
3.80141e-32
4.54792e-31
4.80827e-30
4.84221e-29
1.0208e-32
1.4557e-31
1.95328e-30
2.48111e-29
5.13512e-33
9.04658e-32
1.43965e-30
1.94769e-29
0.072871
1.21169e-07
2.5088e-08
1.20029e-08
4.08293e-09
6.78943e-11
6.3133e-11
0.00271241
0.0213979
0.0939441
0.0906844
0.0549039
0.077267
6.64315e-05
4.88199e-05
7.58608e-05
0.000104482
5.21294e-20
0.168697
6.7774e-15
2.81082e-07
6.60116e-07
6.05902e-07
8.6214e-08
2.08825e-08
1.52093e-10
0.000487522
0.00501309
0.0162652
0.0567676
0.0737227
0.0723096
0.0403718
3.2926e-06
3.28797e-06
3.29261e-06
0.044006
0.153926
2.57101e-07
5.31623e-07
7.8012e-07
9.89354e-07
3.42456e-09
3.52591e-09
5.50098e-11
1.97501e-12
-2.03069e-14
0.00259181
0.00331185
0.06934
0.0847693
0.0901562
0.0857351
0.0806326
0.117757
0.17206
0.172163
1.54558e-10
1.58038e-10
1.01886e-07
2.98938e-06
4.09349e-06
1.93567e-07
5.43118e-08
1.33338e-08
4.21198e-11
0.00018046
0.000324796
0.0127567
0.0304312
0.0545166
0.0722803
0.0694129
0.13062
0.172073
0.162394
5.61566e-10
4.98751e-10
5.0635e-10
5.23933e-06
3.85012e-05
3.96263e-05
3.33299e-06
7.48897e-11
3.45812e-11
1.03551e-06
0.000482371
0.00263439
0.00225345
0.00306335
0.00937609
0.0168073
0.0453523
0.138726
0.119811
2.31901e-09
2.04591e-09
1.12591e-08
1.78739e-06
6.11179e-05
9.1295e-05
4.78187e-05
4.66575e-08
7.49838e-11
2.02237e-05
7.8029e-05
7.45501e-05
3.55767e-05
9.97141e-07
4.67525e-16
3.43411e-07
0.0116881
0.0530202
0.182431
3.06024e-09
2.79914e-09
4.55382e-09
1.28186e-08
2.05409e-05
9.25084e-05
0.000105062
8.41044e-05
1.67645e-06
9.15778e-07
8.33405e-07
2.10824e-06
3.32252e-06
1.81329e-06
5.35197e-16
4.67518e-16
0.000186641
0.050269
0.363083
3.08233e-09
3.46933e-09
2.45596e-09
2.13961e-09
3.78146e-09
1.41087e-05
0.000104833
0.000133332
0.000132809
3.24886e-05
2.10432e-05
1.46209e-05
1.04302e-05
5.72876e-06
3.74834e-06
5.35197e-16
3.20487e-06
0.0485721
0.363083
3.10604e-09
3.47036e-09
3.47438e-09
2.49045e-09
6.12423e-10
3.02406e-10
3.02203e-10
5.69722e-05
8.30232e-05
0.000140837
0.00014085
6.55106e-05
1.17014e-05
6.49448e-06
8.4844e-06
2.55833e-06
2.59767e-06
0.0335331
0.36307
2.21603e-09
3.26436e-09
3.43914e-09
3.51441e-09
3.1727e-09
1.14183e-09
3.46427e-10
3.04234e-10
2.77217e-06
2.61605e-05
2.70312e-05
3.06665e-05
1.14169e-05
4.24702e-06
7.63893e-06
7.90778e-06
1.0069e-05
0.0474548
0.282608
1.0583e-09
2.07998e-09
3.20093e-09
3.49128e-09
3.58409e-09
3.33663e-09
1.43505e-09
3.03828e-10
1.21719e-10
1.21543e-10
4.15759e-07
6.29001e-06
5.24753e-06
4.3335e-06
6.50731e-06
4.74632e-06
0.000704188
0.0241571
0.00034597
6.6226e-10
8.08424e-10
2.26007e-09
3.03744e-09
3.47542e-09
3.4921e-09
3.11085e-09
1.32542e-09
1.64478e-10
1.21522e-10
5.53624e-06
0.000108873
0.00014306
4.2189e-05
2.27531e-05
4.66548e-06
0.000100369
0.000436523
0.000390763
4.61992e-10
4.02246e-10
7.16874e-10
2.19103e-09
2.85803e-09
3.18434e-09
3.2985e-09
3.30883e-09
1.44241e-09
1.21546e-10
1.28835e-06
0.000128598
0.000240898
0.000547732
0.000625203
9.54018e-05
4.70117e-05
5.64e-05
0.00502604
6.9827e-10
3.67808e-10
1.33403e-10
4.61564e-10
1.49948e-09
2.76037e-09
3.2065e-09
3.66974e-09
4.54532e-09
2.93206e-09
2.08751e-09
6.88802e-07
6.97771e-05
0.000744526
0.00431878
0.00525092
0.0156377
0.0419481
0.094092
1.74676e-09
5.33717e-10
1.39487e-10
1.15863e-10
4.82353e-10
1.32851e-09
2.49182e-09
3.51128e-09
5.66038e-09
9.94441e-09
7.95767e-09
3.50464e-09
6.27858e-08
2.79254e-05
0.00317282
0.00895777
0.083682
0.112086
0.11215
1.33744e-09
4.41576e-10
1.18714e-10
7.4506e-11
1.54866e-10
4.35783e-10
1.02626e-09
1.9197e-09
3.98121e-09
1.2686e-08
1.97458e-08
2.16055e-08
1.76149e-09
1.67344e-09
0.000277147
0.00376728
0.0210237
0.0260761
0.0223324
2.91596e-10
1.89075e-10
6.33051e-11
4.29529e-11
1.03337e-10
2.48961e-10
4.68108e-10
8.93231e-10
1.36622e-09
4.2352e-09
1.92268e-08
4.61041e-08
4.89069e-08
1.17762e-08
3.20314e-16
3.23579e-16
1.24308e-17
-5.03084e-15
-4.02476e-15
1.66544e-11
2.46725e-11
1.5535e-11
2.24058e-11
7.32084e-11
2.01169e-10
3.17124e-10
3.02713e-10
6.34969e-10
6.44208e-10
2.73588e-09
4.89746e-08
8.61299e-08
6.6156e-08
3.1921e-08
5.7029e-08
3.1657e-08
1.10374e-10
2.19104e-12
1.02664e-12
3.06139e-12
7.72072e-12
1.96186e-11
5.73522e-11
1.36107e-10
2.0599e-10
2.04004e-10
1.64431e-10
1.81848e-10
7.31272e-11
6.68582e-09
8.57585e-08
1.83461e-07
2.39862e-07
2.82835e-07
1.40811e-07
2.23993e-12
4.28529e-12
6.11941e-13
2.25322e-12
6.00913e-12
1.63615e-11
4.62681e-11
9.29744e-11
1.05787e-10
1.00343e-10
8.53827e-11
6.36368e-11
7.28682e-11
1.90998e-11
1.78033e-08
1.61798e-07
3.43938e-07
3.43957e-07
3.40647e-07
2.45126e-12
4.82988e-11
4.55681e-13
1.69703e-12
4.66918e-12
1.28337e-11
3.14762e-11
4.67451e-11
4.55586e-11
3.91477e-11
3.04018e-11
2.60829e-11
1.97315e-11
1.90862e-11
1.16665e-12
1.15933e-12
6.23108e-08
3.34193e-07
1.29214e-07
7.49027e-10
1.71236e-10
2.98404e-13
1.07271e-12
3.04603e-12
8.07518e-12
1.53338e-11
1.66964e-11
1.49235e-11
1.11309e-11
7.97497e-12
6.29376e-12
5.80432e-12
8.74341e-12
1.47299e-11
2.57386e-12
2.9018e-13
3.74078e-08
4.41157e-09
5.085e-09
2.45921e-10
1.83876e-13
5.13517e-13
1.50937e-12
3.55292e-12
4.92108e-12
4.79478e-12
3.67036e-12
2.23683e-12
1.35969e-12
1.12357e-12
1.1747e-12
2.11831e-12
1.19661e-11
1.53177e-11
2.74716e-13
2.25273e-08
6.33124e-09
2.35534e-09
1.00145e-10
7.10725e-14
2.15801e-13
5.54886e-13
1.01009e-12
1.19636e-12
1.03894e-12
6.2915e-13
2.89792e-13
1.42669e-13
1.33138e-13
1.56502e-13
3.00401e-13
1.30287e-12
3.26105e-12
2.90179e-13
7.14238e-08
2.21591e-08
4.50819e-11
7.15229e-12
1.72413e-14
5.88502e-14
1.34323e-13
2.05247e-13
2.12532e-13
1.64656e-13
7.72775e-14
2.28798e-14
7.33348e-15
7.80706e-15
1.44333e-14
8.16434e-14
4.52482e-13
7.66151e-13
2.86728e-13
1.84594e-07
3.26578e-08
3.72639e-12
4.11341e-12
3.54429e-15
1.17027e-14
2.46953e-14
3.32843e-14
3.02194e-14
1.83339e-14
5.48258e-15
7.43537e-16
4.51407e-17
1.49542e-16
4.89012e-16
3.06771e-14
2.26081e-13
4.72283e-15
1.04148e-08
2.21874e-07
3.3487e-08
3.72566e-12
3.93359e-12
4.49488e-16
1.69405e-15
3.10149e-15
3.665e-15
2.99465e-15
1.42834e-15
2.82566e-16
1.85644e-17
5.29705e-19
5.75822e-19
1.14329e-17
3.87859e-15
3.16393e-14
5.03647e-15
2.90657e-08
1.70483e-07
1.83267e-08
1.8656e-10
4.00549e-12
6.07433e-17
2.00891e-16
3.42362e-16
3.5268e-16
2.3266e-16
7.76032e-17
9.91966e-18
3.94118e-19
2.20531e-19
4.31336e-19
1.09571e-18
2.5321e-17
5.54978e-16
1.21306e-16
4.66912e-08
1.13985e-09
1.14443e-09
2.30816e-10
7.91882e-12
6.21013e-18
1.89407e-17
2.78568e-17
2.49277e-17
1.3559e-17
2.97714e-18
2.21056e-19
7.54161e-20
1.81346e-19
7.593e-19
7.59317e-18
1.85584e-16
1.60782e-17
9.06895e-18
4.80851e-08
2.21178e-08
1.46574e-09
2.88278e-10
2.22463e-11
5.16575e-19
1.40017e-18
1.74031e-18
1.33386e-18
5.27515e-19
7.16949e-20
2.01451e-20
4.86659e-20
1.4074e-18
2.63492e-17
2.87501e-16
4.25306e-14
3.14504e-15
8.04329e-17
4.48191e-08
2.8786e-08
5.55787e-09
9.87884e-10
6.48826e-11
3.30187e-20
6.60515e-20
8.58886e-20
5.03911e-20
1.3994e-20
3.80621e-21
1.00138e-20
1.9042e-19
8.66669e-18
2.00666e-16
3.5803e-15
2.54017e-12
8.93589e-13
3.08841e-24
3.34293e-08
2.76875e-08
8.70024e-09
1.94927e-09
1.61858e-10
1.81174e-21
3.63586e-21
3.10701e-21
1.66022e-21
6.6422e-22
2.22925e-21
2.58127e-20
1.13769e-18
3.8696e-17
9.39609e-16
2.63456e-14
1.80353e-12
3.47665e-12
-1.93622e-16
1.82608e-08
1.66812e-08
8.38627e-09
1.98637e-09
2.42873e-10
8.22827e-23
1.45015e-22
1.08919e-22
9.64161e-23
4.08455e-22
3.30897e-21
7.85812e-20
3.14611e-18
8.55219e-17
1.91032e-15
7.66292e-14
2.01438e-12
2.38757e-11
6.53413e-23
7.58538e-09
7.35728e-09
3.50814e-09
1.23483e-09
1.63049e-10
3.11897e-24
5.34188e-24
7.98221e-24
3.57106e-23
2.48935e-22
2.80863e-21
7.63954e-20
2.33866e-18
5.3039e-17
7.37082e-16
2.03176e-14
1.05568e-12
1.50744e-11
2.39155e-10
2.00468e-09
1.72053e-09
9.91164e-10
3.80101e-10
8.28273e-11
1.29484e-25
4.66612e-25
2.96484e-24
2.40988e-23
1.92749e-22
1.58168e-21
1.9028e-20
4.15845e-19
9.58049e-18
1.60706e-16
2.5905e-15
2.09524e-13
3.405e-12
1.28088e-10
5.46795e-10
4.66716e-10
2.9223e-10
1.23151e-10
2.24177e-11
1.8565e-26
1.74338e-25
1.69457e-24
1.60413e-23
1.40342e-22
1.0326e-21
7.01837e-21
6.80398e-20
1.00383e-18
1.79889e-17
2.12662e-16
1.01274e-14
5.29106e-13
9.79688e-12
9.53466e-11
9.96528e-11
7.53018e-11
3.31753e-11
6.5402e-12
7.17645e-27
8.44775e-26
9.20574e-25
9.47899e-24
8.94917e-23
6.53748e-22
4.39413e-21
2.56988e-20
1.60939e-19
1.34206e-18
2.49069e-17
3.58122e-16
2.38324e-14
8.18212e-13
7.11865e-12
1.29033e-11
1.25177e-11
5.59113e-12
1.22586e-12
3.02463e-27
3.94588e-26
4.84551e-25
5.32103e-24
5.30614e-23
3.94203e-22
2.60913e-21
1.5215e-20
7.29061e-20
3.05048e-19
1.58929e-18
2.22284e-17
6.49592e-16
2.93566e-14
8.11499e-13
1.25395e-12
1.2809e-12
7.29797e-13
1.53609e-13
1.19945e-27
1.71218e-26
2.29042e-25
2.56733e-24
2.59658e-23
2.00934e-22
1.38299e-21
8.07984e-21
3.64746e-20
1.38196e-19
4.55085e-19
1.34314e-18
6.16996e-18
1.24772e-16
1.40737e-14
2.46416e-14
4.00446e-14
3.84904e-14
2.03918e-14
4.76977e-28
7.78176e-27
1.17194e-25
1.45073e-24
1.4198e-23
1.07149e-22
6.69584e-22
3.42068e-21
1.51078e-20
5.21659e-20
1.60193e-19
3.74267e-19
7.49837e-19
9.30154e-19
6.81622e-19
1.10021e-16
1.02675e-15
3.2865e-15
5.12809e-15
3.25631e-28
6.70841e-27
1.04415e-25
1.26768e-24
1.17893e-23
8.49803e-23
4.80348e-22
2.09081e-21
7.01771e-21
1.99977e-20
4.83936e-20
9.14405e-20
1.8207e-19
1.36682e-19
3.46745e-19
7.29577e-19
5.24343e-17
6.57921e-16
1.44832e-15
2.21389e-28
3.63443e-27
5.20661e-26
5.38183e-25
3.86382e-24
2.16137e-23
9.17142e-23
3.15856e-22
9.08109e-22
2.20043e-21
4.14428e-21
6.6669e-21
1.00409e-20
3.93204e-21
7.12083e-21
8.30058e-21
1.37678e-18
5.54378e-17
9.33708e-17
)
;

boundaryField
{
    leftWall
    {
        type            zeroGradient;
    }
    rightWall
    {
        type            zeroGradient;
    }
    lowerWall
    {
        type            zeroGradient;
    }
    atmosphere
    {
        type            inletOutlet;
        inletValue      uniform 0;
        value           nonuniform List<scalar> 
46
(
4.84828e-54
1.09877e-52
1.32107e-53
1.17218e-54
1.10875e-55
7.09701e-55
1.47291e-53
2.7092e-52
4.48029e-51
6.81768e-50
8.89941e-49
8.97106e-48
6.8166e-47
4.34699e-46
2.45045e-45
1.66477e-44
2.50401e-43
6.13534e-42
1.53403e-40
3.86366e-39
1.02413e-37
3.2638e-36
1.3067e-34
5.13512e-33
9.04658e-32
1.43965e-30
1.94769e-29
2.21389e-28
3.63443e-27
5.20661e-26
0
0
0
0
0
0
0
0
0
0
0
0
0
0
0
0
)
;
    }
    defaultFaces
    {
        type            empty;
    }
}


// ************************************************************************* //
