/*--------------------------------*- C++ -*----------------------------------*\
| =========                 |                                                 |
| \\      /  F ield         | OpenFOAM: The Open Source CFD Toolbox           |
|  \\    /   O peration     | Version:  2312                                  |
|   \\  /    A nd           | Website:  www.openfoam.com                      |
|    \\/     M anipulation  |                                                 |
\*---------------------------------------------------------------------------*/
FoamFile
{
    version     2.0;
    format      ascii;
    arch        "LSB;label=32;scalar=64";
    class       volScalarField;
    location    "0.75";
    object      p;
}
// * * * * * * * * * * * * * * * * * * * * * * * * * * * * * * * * * * * * * //

dimensions      [1 -1 -2 0 0 0 0];

internalField   nonuniform List<scalar> 
2268
(
3158.9
3176.12
3202.33
3258.09
3360.69
3538.38
3846.39
4310.29
4887.81
5448.56
5892.27
6203.24
6402.01
6510.48
6554.78
6563.19
6558.11
6554.42
6560.76
6580.41
6610.15
6633.21
6657.98
2357.14
2373.76
2397.98
2449.84
2547.28
2711.41
3009.54
3477.98
4081.98
4667.48
5120.94
5431.33
5625.44
5726.41
5763.12
5765.91
5757.42
5752.06
5758.33
5779.28
5811.23
5836.8
5864.48
1584.75
1597.2
1613.54
1649.57
1720.44
1853.76
2126.23
2602
3259.43
3896.02
4371.27
4681.65
4867.17
4954.19
4976.07
4968.03
4952.92
4944.28
4950.43
4974.06
5010.54
5040.66
5073.15
1120.78
1124.93
1130.67
1143.41
1166.9
1223.26
1350.44
1702.47
2415.33
3139.45
3648.31
3956.52
4128.82
4193.2
4192.44
4168.58
4143.95
4130.54
4136.73
4164.68
4208.27
4245.08
4285.05
995.926
995.675
996.208
998.186
1002.82
1014.79
1042.09
1145.84
1599.48
2386.88
2950.99
3253.35
3408.45
3441.6
3410.34
3366.29
3329.62
3310.05
3316.58
3350.74
3404.34
3449.86
3499.9
936.13
935.68
935.763
937.02
940.507
948.151
963.881
981.809
1092.48
1666.9
2275.43
2565.84
2701.99
2695.07
2625.9
2558.39
2507.62
2480.6
2488.3
2531.26
2598.48
2655.06
2719.29
876.078
875.317
874.774
874.882
876.637
881.157
891.627
900.944
887.382
1094.51
1609.04
1881.52
2000.89
1944.52
1830.39
1737.98
1673.08
1639.31
1650.15
1704.47
1788.38
1860.55
1946.52
815.822
814.692
813.449
812.425
812.234
813.454
817.041
816.223
775.687
743.649
972.823
1241.83
1301.24
1210.12
1089.32
1012.5
965.91
946.918
965.003
1019.6
1102.87
1185.61
1277.82
2290.42
1977.47
2225.54
2289.21
2317.54
2540.45
2761.89
2848.33
2854.25
2770.57
2695
2864.46
3241.73
3811.61
3083.8
2192.2
1877.11
2055.78
2424.4
1832.24
1693.57
1978.62
2048.38
1953.83
1894.07
1989.51
2113.09
2145.39
2047.41
1963.96
2110.61
2504.98
3200.28
2558.77
1732.81
1527.4
1733.91
2130.99
1638.16
1509.06
1713.62
1607.83
1419.35
1291.88
1339.09
1448.31
1487.82
1403.36
1338.18
1510.19
1845.44
2428.83
1927.21
1442.13
1351.05
1542.55
1971.16
1610.73
1224.43
1242.01
1066.39
994.965
991.934
1045.09
1111.49
1151.08
1112.42
1113.66
1216.02
1369.28
1746.53
1537.1
1310.01
1253.61
1375.88
1787.74
1481.28
1096.56
923.651
865.183
868.745
904.178
965.525
1031.7
1075.41
1041.71
1055.03
1095.92
1122.95
1343.23
1355.22
1234.31
1184.57
1237.22
1562.84
1093.12
954.086
788.779
766.571
788.402
831.704
895.22
967.764
1019.52
1004.72
1019.57
1010.21
993.754
1173.64
1254.65
1175.35
1150.88
1167.85
1350.68
633.332
798.211
701.557
679.744
707.342
759.14
828.507
903.339
949.465
972.522
987.322
929.314
952.462
1109.51
1187.39
1144.5
1144.8
1143.62
1236.25
392.907
690.532
643.019
612.763
624.472
684.513
758.98
828.101
850.555
919.915
952.237
898.544
956.952
1075.35
1145.73
1138.3
1142.35
1135.35
1199.74
721.426
719.626
717.094
713.882
710.266
706.055
699.363
682.244
632.73
546.393
514.19
557.905
628.685
597.355
557.492
542.353
540.58
552.067
578.749
621.124
682.849
764.145
856.095
592.983
589.869
585.144
578.574
570.216
559.697
545.095
520.326
473.163
390.171
271.635
221.652
243.865
272.724
293.383
307.421
320.808
341.717
376.027
428.126
500.778
574.786
651.455
465.458
460.691
453.72
443.851
431.105
415.733
397.755
374.397
339.953
290.324
231.454
190.088
172.434
167.875
166.894
165.523
166.73
179.236
209.918
240.054
322.606
457.339
600.905
340.926
333.383
324.245
311.306
294.081
273.713
254.693
236.374
215.274
187.311
153.592
121.868
97.8197
79.9431
66.5756
56.8603
52.8574
66.1626
119.591
202.343
259.22
308.026
395.337
219.904
208.57
198.119
182.997
162.746
143.326
128.945
118.41
107.964
93.1654
72.2042
49.5465
30.2511
18.4098
13.3545
9.65395
6.37271
8.7837
52.9302
122.596
170.352
202.991
248.016
109.965
90.4931
81.4966
70.6124
59.7281
51.081
42.6396
36.7819
31.532
25.8576
18.3982
10.6262
3.69967
1.34664
1.60566
1.97836
2.13869
3.44144
10.5527
36.7011
70.2721
71.7963
43.7666
34.4357
18.026
14.5295
12.1912
10.5317
7.58822
4.88425
3.67853
1.8063
0.269302
0.204918
0.28124
0.407491
0.696519
0.956166
1.29082
1.63666
1.94219
2.5813
11.6963
22.0635
6.57081
-0.257023
2.61422
2.132
1.43878
1.04142
0.117664
-0.400883
-0.374282
-0.373623
-0.334755
-0.248926
-0.149604
-0.0167016
0.151407
0.383216
0.607603
0.799576
0.946713
0.794457
-0.820457
1.60581
7.1582
0.263805
-2.29412
0.724909
-0.189727
-0.588596
-0.699255
-0.738486
-0.664569
-0.603781
-0.57908
-0.535324
-0.430702
-0.309442
-0.210791
-0.0951117
0.0408627
0.159403
0.215588
0.113716
-0.365817
-2.09741
-3.25499
-3.11728
-3.15035
-3.0211
-0.376719
-0.967731
-0.919272
-0.927513
-0.943319
-0.877942
-0.818133
-0.765361
-0.706318
-0.632358
-0.550111
-0.473198
-0.39135
-0.318225
-0.282534
-0.327204
-0.536772
-1.06051
-2.08354
-2.72708
-2.95226
-3.10617
-3.25065
-1.07664
-1.19
-1.14791
-1.154
-1.14082
-1.08725
-1.03004
-0.975589
-0.913937
-0.849676
-0.78801
-0.732909
-0.6867
-0.661565
-0.679644
-0.773679
-0.98983
-1.38528
-1.96884
-2.51207
-2.83605
-3.08494
-3.3034
-1.45703
-1.43809
-1.39066
-1.3786
-1.34687
-1.29301
-1.23169
-1.17246
-1.1166
-1.0653
-1.02113
-0.987417
-0.96909
-0.975919
-1.02365
-1.13345
-1.32866
-1.62742
-2.0013
-2.43
-2.74888
-3.00703
-3.25973
-1.63809
-1.64932
-1.609
-1.58221
-1.53972
-1.48485
-1.42
-1.36328
-1.31599
-1.27689
-1.24776
-1.23163
-1.23313
-1.25935
-1.32079
-1.42993
-1.59792
-1.82739
-2.0987
-2.40447
-2.6823
-2.9284
-3.15733
-1.80846
-1.83215
-1.77667
-1.75426
-1.7084
-1.65396
-1.59753
-1.54858
-1.50997
-1.48152
-1.465
-1.46261
-1.47742
-1.51438
-1.58009
-1.6817
-1.82339
-2.00448
-2.21409
-2.44381
-2.66655
-2.87443
-3.06579
-1.92787
-1.95213
-1.92327
-1.89576
-1.85423
-1.8071
-1.76134
-1.72392
-1.69593
-1.67831
-1.67226
-1.67965
-1.70291
-1.74494
-1.80967
-1.90101
-2.02073
-2.16634
-2.33182
-2.50956
-2.6849
-2.85213
-3.0072
-2.01833
-2.04136
-2.03094
-2.01234
-1.9826
-1.94881
-1.91738
-1.89228
-1.87509
-1.86706
-1.86943
-1.88362
-1.91181
-1.95516
-2.01573
-2.09737
-2.19863
-2.31751
-2.44971
-2.5895
-2.72809
-2.86116
-2.98302
-2.10428
-2.12237
-2.12707
-2.12162
-2.10629
-2.08714
-2.0692
-2.0556
-2.04814
-2.04815
-2.05685
-2.07552
-2.10565
-2.14848
-2.20517
-2.27688
-2.36283
-2.46098
-2.56794
-2.67954
-2.79036
-2.89646
-2.99202
-2.20571
-2.21837
-2.23247
-2.23737
-2.23411
-2.22722
-2.22037
-2.21613
-2.21634
-2.22241
-2.23559
-2.25701
-2.28776
-2.32882
-2.38074
-2.44375
-2.51707
-2.59894
-2.6867
-2.7772
-2.86666
-2.952
-3.02812
-2.33077
-2.33983
-2.35573
-2.3656
-2.36991
-2.3713
-2.37223
-2.37475
-2.38051
-2.39087
-2.40699
-2.42984
-2.46025
-2.49887
-2.54595
-2.60133
-2.66424
-2.73321
-2.80619
-2.88073
-2.95401
-3.02401
-3.08643
-2.47472
-2.48139
-2.49455
-2.50522
-2.51303
-2.51907
-2.52481
-2.53175
-2.54123
-2.55441
-2.57226
-2.59559
-2.62499
-2.66089
-2.70337
-2.75213
-2.80645
-2.86515
-2.92661
-2.98896
-3.05012
-3.1086
-3.16113
-2.62786
-2.63263
-2.6424
-2.6521
-2.66095
-2.66918
-2.67758
-2.68717
-2.69893
-2.71375
-2.7324
-2.75551
-2.7835
-2.81665
-2.85491
-2.89796
-2.94517
-2.99558
-3.04796
-3.10087
-3.15275
-3.20247
-3.24769
-2.78331
-2.78672
-2.79405
-2.80247
-2.81124
-2.82028
-2.82999
-2.84098
-2.85393
-2.86951
-2.88827
-2.91068
-2.93704
-2.96749
-3.00194
-3.04007
-3.08136
-3.12503
-3.17012
-3.21555
-3.26015
-3.30305
-3.34259
-2.93822
-2.94082
-2.9466
-2.95391
-2.96222
-2.97137
-2.98154
-2.9931
-3.0065
-3.02219
-3.04058
-3.06197
-3.08658
-3.11446
-3.14549
-3.17938
-3.21568
-3.25379
-3.29295
-3.33235
-3.37109
-3.40851
-3.44339
-3.09178
-3.09393
-3.09871
-3.10515
-3.11289
-3.1218
-3.13194
-3.14353
-3.15686
-3.17222
-3.1899
-3.21008
-3.2329
-3.25835
-3.28631
-3.31652
-3.3486
-3.38206
-3.41633
-3.45076
-3.48469
-3.51759
-3.54855
-3.2438
-3.24567
-3.24977
-3.25552
-3.2627
-3.27118
-3.28101
-3.2923
-3.30522
-3.31997
-3.33671
-3.35557
-3.37661
-3.39979
-3.42499
-3.45198
-3.48043
-3.50997
-3.54013
-3.57043
-3.60034
-3.62944
-3.65707
-3.39426
-3.39594
-3.39955
-3.40474
-3.41136
-3.41935
-3.4287
-3.43947
-3.45177
-3.46571
-3.48139
-3.49887
-3.51818
-3.53925
-3.56195
-3.5861
-3.61142
-3.6376
-3.66428
-3.69106
-3.71756
-3.74344
-3.76819
-3.54321
-3.54474
-3.54797
-3.55268
-3.55879
-3.56623
-3.57501
-3.58514
-3.59669
-3.60971
-3.62426
-3.64036
-3.65799
-3.67709
-3.69754
-3.71916
-3.74174
-3.76501
-3.78868
-3.81245
-3.83602
-3.85912
-3.88136
-3.69075
-3.69214
-3.69505
-3.69934
-3.70494
-3.71183
-3.71998
-3.72941
-3.74013
-3.75218
-3.76558
-3.78031
-3.79635
-3.81362
-3.83201
-3.85137
-3.87152
-3.89223
-3.91328
-3.93443
-3.95544
-3.9761
-3.99613
-3.83694
-3.83822
-3.84085
-3.84475
-3.84987
-3.8562
-3.86371
-3.87239
-3.88226
-3.89332
-3.90556
-3.91897
-3.93349
-3.94906
-3.96557
-3.98288
-4.00085
-4.0193
-4.03804
-4.05687
-4.07562
-4.09411
-4.11213
-3.98191
-3.98307
-3.98544
-3.98898
-3.99364
-3.99941
-4.00627
-4.01421
-4.02322
-4.03329
-4.0444
-4.05652
-4.06961
-4.08359
-4.09837
-4.11383
-4.12983
-4.14625
-4.16291
-4.17967
-4.19638
-4.21292
-4.22911
-4.12573
-4.12678
-4.12892
-4.13211
-4.13633
-4.14155
-4.14777
-4.15497
-4.16312
-4.17222
-4.18224
-4.19314
-4.20487
-4.21737
-4.23054
-4.24429
-4.25852
-4.27308
-4.28787
-4.30276
-4.31762
-4.33237
-4.34686
-4.26852
-4.26946
-4.27138
-4.27424
-4.27803
-4.28272
-4.28831
-4.29478
-4.3021
-4.31026
-4.31922
-4.32895
-4.3394
-4.3505
-4.36219
-4.37437
-4.38695
-4.39983
-4.4129
-4.42606
-4.43923
-4.45232
-4.46523
-4.41037
-4.41121
-4.41292
-4.41546
-4.41883
-4.42301
-4.42799
-4.43375
-4.44026
-4.4475
-4.45545
-4.46407
-4.47331
-4.4831
-4.4934
-4.50412
-4.51518
-4.52649
-4.53798
-4.54956
-4.56115
-4.57269
-4.5841
-4.55138
-4.55213
-4.55363
-4.55587
-4.55884
-4.56252
-4.5669
-4.57197
-4.5777
-4.58407
-4.59105
-4.5986
-4.60669
-4.61525
-4.62424
-4.63359
-4.64323
-4.6531
-4.66311
-4.6732
-4.68332
-4.6934
-4.70339
-4.69165
-4.6923
-4.6936
-4.69555
-4.69813
-4.70133
-4.70515
-4.70955
-4.71452
-4.72005
-4.7261
-4.73264
-4.73963
-4.74703
-4.75478
-4.76285
-4.77116
-4.77966
-4.78828
-4.79698
-4.80571
-4.81441
-4.82304
-4.83126
-4.83182
-4.83294
-4.8346
-4.83681
-4.83955
-4.8428
-4.84656
-4.85081
-4.85552
-4.86068
-4.86625
-4.8722
-4.87849
-4.88508
-4.89192
-4.89897
-4.90618
-4.9135
-4.92089
-4.92829
-4.93568
-4.94301
-4.97032
-4.97079
-4.97172
-4.97312
-4.97496
-4.97725
-4.97997
-4.98311
-4.98665
-4.99058
-4.99488
-4.99951
-5.00446
-5.00969
-5.01517
-5.02086
-5.02671
-5.0327
-5.03878
-5.0449
-5.05105
-5.05718
-5.06326
-5.10891
-5.10929
-5.11005
-5.11118
-5.11266
-5.11452
-5.11671
-5.11925
-5.12212
-5.12529
-5.12876
-5.1325
-5.13649
-5.1407
-5.14511
-5.14969
-5.1544
-5.15922
-5.16411
-5.16903
-5.17397
-5.1789
-5.18378
-5.24713
-5.24742
-5.248
-5.24887
-5.25001
-5.25144
-5.25313
-5.25508
-5.25729
-5.25973
-5.26239
-5.26527
-5.26833
-5.27157
-5.27495
-5.27846
-5.28207
-5.28576
-5.2895
-5.29328
-5.29706
-5.30082
-5.30455
-5.38505
-5.38525
-5.38566
-5.38628
-5.38709
-5.3881
-5.3893
-5.39068
-5.39224
-5.39396
-5.39585
-5.39788
-5.40004
-5.40233
-5.40472
-5.40719
-5.40974
-5.41234
-5.41498
-5.41763
-5.42029
-5.42294
-5.42555
-5.52277
-5.52288
-5.52312
-5.52348
-5.52396
-5.52457
-5.52528
-5.5261
-5.52703
-5.52806
-5.52918
-5.53039
-5.53167
-5.53303
-5.53445
-5.53592
-5.53743
-5.53897
-5.54053
-5.5421
-5.54367
-5.54522
-5.54675
-5.66037
-5.66037
-5.66044
-5.66056
-5.66072
-5.66092
-5.66115
-5.66143
-5.66173
-5.66207
-5.66244
-5.66284
-5.66326
-5.66371
-5.66417
-5.66466
-5.66515
-5.66566
-5.66616
-5.66667
-5.66716
-5.66765
-5.66812
961.748
1007.08
1037.34
1009.34
685.981
697.945
725.482
781.376
685.423
703.27
703.371
687.381
470.858
509.846
529.889
535.984
312.39
328.815
339.931
355.105
41.3739
34.543
74.5398
125.857
-1.13898
-1.4605
0.0382204
9.21924
-2.67377
-2.69345
-2.77912
-2.71375
-3.10154
-3.11292
-3.13309
-3.14811
-3.39038
-3.41845
-3.40518
-3.36754
-3.52404
-3.58803
-3.59231
-3.58773
-3.46785
-3.58834
-3.66387
-3.661
-3.32522
-3.42917
-3.51071
-3.55649
-3.2026
-3.2888
-3.36099
-3.41399
-3.12059
-3.19207
-3.25183
-3.2997
-3.07475
-3.13288
-3.17935
-3.21887
-3.06442
-3.11033
-3.1476
-3.17956
-3.08645
-3.12394
-3.15485
-3.18172
-3.13435
-3.16512
-3.19089
-3.21367
-3.20113
-3.22663
-3.24845
-3.26807
-3.28164
-3.30311
-3.32191
-3.33905
-3.37186
-3.39028
-3.40671
-3.42188
-3.46899
-3.48508
-3.49968
-3.51329
-3.57122
-3.58549
-3.59861
-3.61098
-3.67731
-3.6901
-3.70201
-3.71333
-3.78639
-3.79792
-3.80878
-3.81919
-3.89777
-3.90821
-3.91813
-3.92773
-4.01095
-4.02041
-4.02947
-4.0383
-4.12551
-4.13407
-4.14233
-4.15043
-4.24116
-4.24888
-4.25638
-4.26378
-4.35766
-4.36459
-4.37137
-4.37807
-4.47485
-4.48103
-4.4871
-4.49312
-4.59259
-4.59805
-4.60344
-4.6088
-4.71081
-4.71558
-4.7203
-4.72501
-4.82943
-4.83355
-4.83763
-4.8417
-4.94842
-4.9519
-4.95536
-4.95882
-5.06773
-5.07061
-5.07347
-5.07634
-5.18735
-5.18965
-5.19194
-5.19424
-5.30726
-5.309
-5.31074
-5.31248
-5.42742
-5.42863
-5.42984
-5.43105
-5.54784
-5.54854
-5.54924
-5.54995
-5.66843
-5.66863
-5.66882
-5.66904
690.343
645.267
596.987
557.938
545.902
581.016
649.327
714.274
724.708
797.922
869.9
896.008
980.622
1076.66
1129.72
1137.04
1139.92
1134.88
1188.93
718.136
626.155
551.819
497.168
471.824
476.92
520.51
585.008
618.308
669.026
746.133
811.59
897.887
1045.16
1109.67
1125.95
1120.85
1116.72
1203.32
641.347
579.027
510.116
458.795
431.089
418.101
438.449
483.199
524.747
571.16
622.804
678.331
756.629
879.998
987.719
1021.58
1018
1068.11
1187.48
525.509
488.787
452.877
421.826
407.794
401.8
403.939
422.82
452.246
493.595
541.072
561.872
614.812
691.16
771.053
835.304
912.113
976.27
1069.77
374.004
370.132
367.127
375.415
396.61
398.91
398.039
400.758
412.607
442.179
480.648
510.365
538.484
573.028
614.769
666.18
733.741
800.85
906.947
195.608
238.19
267.85
298.185
343.191
389.258
398.388
400.193
402.606
407.664
436.624
467.226
492.762
517.566
537.992
558.127
614.031
638.876
747.134
37.3347
103.705
165.768
216.87
268.6
329.137
379.423
397.596
401.048
401.404
400.161
407.419
429.693
460.077
484.097
486.672
517.92
537.17
611.403
-1.76354
13.4
67.0495
132.814
193.808
252.116
309.344
355.645
386.904
394.963
388.935
385.646
385.806
396.948
420.157
422.213
442.093
449.667
503.348
-3.09853
-2.72503
7.11022
50.7743
114.829
176.785
232.11
280.313
322.035
346.96
354.395
351.364
346.454
337.822
350.653
360.64
376.049
387.027
402.747
-3.30189
-3.12442
-2.91905
4.62401
40.1282
98.1679
155.829
205.457
244.85
271.771
286.143
289.673
287.189
279.839
291.026
304.664
321.521
329.137
448.617
-3.51421
-3.3034
-3.08435
-2.89023
2.62007
29.3788
78.6284
129.166
169.599
198.497
215.652
223.153
224.897
226.913
239.491
255.508
280.201
274.483
270.1
-3.58285
-3.43205
-3.20383
-2.98834
-2.83525
0.399424
18.514
57.0538
97.1877
128.199
149.183
161.892
169.931
179.526
195.348
217.295
251.518
255.635
249.755
-3.57804
-3.45748
-3.28619
-3.09083
-2.92765
-2.84035
-1.88068
10.2033
35.1621
64.1253
88.3339
106.293
120.898
136.632
158.636
192.512
238.505
246.626
235.204
-3.46535
-3.41991
-3.28718
-3.16341
-3.05029
-2.93382
-2.81886
-2.66817
3.615
17.2097
36.2243
56.2932
74.6099
93.451
116.919
152.158
198.307
203.145
172.068
-3.35777
-3.35251
-3.28839
-3.2024
-3.11558
-3.03373
-2.91449
-2.80089
-2.84392
-1.9425
7.01477
18.3396
33.5209
50.7034
66.7276
88.9985
111.265
116.152
110.707
-3.27453
-3.29404
-3.26827
-3.21975
-3.16767
-3.09085
-3.01078
-2.93817
-2.87168
-2.79296
-2.80826
-0.337773
9.31369
19.0955
27.0671
36.83
47.4904
56.8146
48.0101
-3.22593
-3.25312
-3.25355
-3.23261
-3.19823
-3.15345
-3.09547
-3.03403
-2.98391
-2.91872
-2.87289
-2.91331
-2.99744
-0.258459
4.44862
5.99786
6.44354
7.61022
9.58592
-3.2211
-3.24923
-3.26219
-3.25831
-3.24095
-3.21092
-3.17188
-3.12811
-3.07268
-3.01716
-2.99046
-2.99402
-3.01701
-3.07315
-2.94404
-2.5587
-1.9153
-0.821155
0.281478
-3.24701
-3.27472
-3.29286
-3.2988
-3.2925
-3.27569
-3.25042
-3.21821
-3.17905
-3.13434
-3.10413
-3.11928
-3.19104
-3.26029
-3.16826
-2.8876
-2.35116
-1.30512
-0.0543229
-3.29651
-3.32245
-3.34263
-3.35387
-3.3555
-3.3489
-3.33591
-3.31786
-3.29661
-3.27661
-3.26588
-3.28155
-3.36206
-3.42889
-3.3935
-3.31568
-3.10162
-2.89838
-0.82088
-3.36387
-3.38811
-3.40861
-3.42287
-3.43014
-3.43154
-3.42854
-3.42257
-3.41597
-3.41265
-3.41886
-3.44196
-3.48236
-3.5236
-3.51911
-3.59155
-3.33263
-3.68211
-1.75661
-3.44406
-3.46716
-3.48762
-3.5037
-3.51489
-3.52214
-3.52666
-3.52975
-3.53324
-3.53959
-3.55141
-3.57116
-3.59907
-3.62385
-3.6207
-3.70788
-3.34827
-3.55024
-1.29262
-3.53356
-3.55589
-3.57624
-3.59351
-3.60746
-3.6189
-3.62889
-3.63849
-3.64902
-3.66201
-3.67881
-3.69986
-3.72284
-3.74189
-3.7402
-3.79733
-3.6919
-3.52668
-1.8405
-3.62975
-3.65144
-3.67166
-3.68972
-3.7056
-3.72003
-3.73391
-3.74815
-3.7637
-3.78161
-3.80269
-3.82697
-3.85248
-3.87636
-3.8866
-3.92137
-3.73251
-3.64101
-2.34757
-3.73084
-3.75187
-3.77184
-3.79036
-3.80753
-3.82401
-3.84061
-3.85812
-3.87731
-3.89905
-3.92412
-3.9529
-3.98446
-4.01953
-4.05853
-4.09548
-4.20154
-3.89835
-2.51738
-3.83556
-3.85584
-3.87541
-3.89406
-3.91197
-3.92975
-3.94814
-3.96785
-3.98961
-4.01427
-4.04276
-4.07604
-4.11544
-4.1627
-4.24752
-4.27882
-4.78785
-4.61437
-2.20043
-3.943
-3.96242
-3.98141
-3.99987
-4.01804
-4.03647
-4.05587
-4.07687
-4.10021
-4.12679
-4.1577
-4.1943
-4.23922
-4.29212
-4.39825
-4.45422
-4.8364
-5.08138
-5.09394
-4.0525
-4.07094
-4.08915
-4.10713
-4.12512
-4.14369
-4.16333
-4.18478
-4.20874
-4.23612
-4.26808
-4.30599
-4.35361
-4.41116
-4.51671
-4.63791
-4.80657
-5.01353
-5.05917
-4.16357
-4.1809
-4.19816
-4.21537
-4.23278
-4.25091
-4.27023
-4.29136
-4.315
-4.34206
-4.37371
-4.41112
-4.45876
-4.52069
-4.62453
-4.80928
-4.79198
-4.98106
-4.97797
-4.27584
-4.29197
-4.30811
-4.32432
-4.34081
-4.35807
-4.3765
-4.39661
-4.41905
-4.44469
-4.47468
-4.50991
-4.55512
-4.61912
-4.71404
-4.95944
-4.87319
-4.9862
-4.91791
-4.38906
-4.4039
-4.41879
-4.4338
-4.44916
-4.46519
-4.48226
-4.50076
-4.52124
-4.54444
-4.57137
-4.60253
-4.64105
-4.69681
-4.77916
-4.95938
-4.93656
-4.95294
-4.87314
-4.50304
-4.51653
-4.53008
-4.54374
-4.55775
-4.57232
-4.58771
-4.60419
-4.62213
-4.64206
-4.66461
-4.6898
-4.71757
-4.75345
-4.79907
-4.88225
-4.89133
-4.87541
-4.8087
-4.61766
-4.62975
-4.64189
-4.65414
-4.66667
-4.67963
-4.69315
-4.70739
-4.7225
-4.73868
-4.756
-4.77388
-4.79013
-4.80488
-4.8178
-4.84571
-4.84947
-4.81844
-4.75368
-4.73282
-4.74351
-4.75422
-4.76502
-4.77603
-4.78731
-4.79892
-4.81088
-4.82315
-4.83561
-4.84786
-4.85891
-4.86594
-4.86462
-4.85848
-4.85839
-4.84736
-4.80983
-4.74626
-4.84848
-4.85777
-4.86706
-4.87642
-4.88591
-4.89554
-4.90531
-4.91514
-4.92483
-4.93407
-4.94215
-4.94802
-4.94901
-4.9411
-4.92684
-4.91246
-4.89116
-4.85257
-4.79279
-4.96459
-4.97252
-4.98042
-4.98837
-4.9964
-5.00449
-5.01258
-5.02053
-5.02806
-5.03478
-5.03987
-5.04237
-5.04014
-5.03018
-5.01411
-4.99552
-4.97126
-4.93626
-4.88321
-5.08114
-5.08773
-5.09431
-5.10091
-5.10757
-5.11425
-5.12088
-5.12729
-5.13316
-5.13811
-5.14132
-5.14202
-5.13859
-5.12912
-5.11457
-5.09736
-5.07539
-5.04695
-5.00265
-5.19809
-5.20339
-5.20869
-5.21403
-5.21944
-5.22489
-5.2303
-5.23551
-5.24021
-5.24407
-5.24633
-5.24643
-5.24328
-5.23567
-5.22423
-5.2107
-5.1932
-5.17249
-5.13788
-5.31542
-5.31949
-5.32361
-5.32775
-5.33202
-5.3364
-5.34083
-5.34518
-5.34915
-5.3525
-5.35453
-5.35491
-5.35285
-5.34768
-5.33969
-5.33038
-5.3176
-5.30438
-5.27949
-5.43311
-5.43595
-5.43884
-5.44198
-5.44524
-5.44871
-5.45238
-5.45616
-5.45979
-5.46309
-5.46544
-5.46666
-5.46602
-5.46337
-5.4586
-5.45306
-5.44419
-5.43725
-5.42057
-5.55118
-5.55293
-5.55485
-5.55683
-5.55912
-5.56182
-5.56491
-5.56831
-5.5718
-5.57532
-5.57823
-5.58059
-5.58166
-5.58151
-5.57974
-5.57737
-5.57105
-5.56851
-5.55631
-5.66943
-5.67003
-5.67088
-5.67207
-5.67362
-5.67553
-5.67789
-5.68075
-5.68407
-5.68791
-5.69175
-5.69582
-5.69904
-5.70193
-5.70337
-5.70416
-5.69941
-5.69953
-5.68579
)
;

boundaryField
{
    leftWall
    {
        type            calculated;
        value           nonuniform List<scalar> 
50
(
3158.9
2357.14
1584.75
1120.78
995.926
936.13
876.078
815.822
721.426
592.983
465.458
340.926
219.904
109.965
34.4357
2.61422
0.724909
-0.376719
-1.07664
-1.45703
-1.63809
-1.80846
-1.92787
-2.01833
-2.10428
-2.20571
-2.33077
-2.47472
-2.62786
-2.78331
-2.93822
-3.09178
-3.2438
-3.39426
-3.54321
-3.69075
-3.83694
-3.98191
-4.12573
-4.26852
-4.41037
-4.55138
-4.69165
-4.83126
-4.97032
-5.10891
-5.24713
-5.38505
-5.52277
-5.66037
)
;
    }
    rightWall
    {
        type            calculated;
        value           nonuniform List<scalar> 
50
(
2424.4
2130.99
1971.16
1787.74
1562.84
1350.68
1236.25
1199.74
1188.93
1203.32
1187.48
1069.77
906.947
747.134
611.403
503.348
402.747
448.617
270.1
249.755
235.204
172.068
110.707
48.0101
9.58592
0.281478
-0.0543229
-0.82088
-1.75661
-1.29262
-1.8405
-2.34757
-2.51738
-2.20043
-5.09394
-5.05917
-4.97797
-4.91791
-4.87314
-4.8087
-4.75368
-4.74626
-4.79279
-4.88321
-5.00265
-5.13788
-5.27949
-5.42057
-5.55631
-5.68579
)
;
    }
    lowerWall
    {
        type            calculated;
        value           nonuniform List<scalar> 
62
(
3557.05
3574.27
3600.48
3656.24
3758.84
3936.53
4244.54
4708.44
5285.96
5846.71
6290.42
6601.39
6800.16
6908.63
6952.93
6961.34
6956.26
6952.57
6958.91
6978.56
7008.3
7031.36
7056.1
6657.98
5864.48
5073.15
4285.05
3499.9
2719.29
1946.52
1277.82
1184.98
1245.43
1318.04
1288.94
2290.42
1832.24
1638.16
1610.73
1481.28
1093.12
633.332
392.907
2462.73
2139.37
2355.99
2391.37
2497.26
2878.04
3138.45
3193.37
3170.44
3084.83
3009.02
3223.7
3612.09
4041.67
3239.86
2352.73
2039.05
2212.97
2572.36
)
;
    }
    atmosphere
    {
        type            calculated;
        value           nonuniform List<scalar> 
46
(
-5.72904
-5.72904
-5.72904
-5.72904
-5.72904
-5.72904
-5.72904
-5.72904
-5.72904
-5.72904
-5.72904
-5.72904
-5.72904
-5.72904
-5.72904
-5.72904
-5.72904
-5.72904
-5.72904
-5.72904
-5.72904
-5.72904
-5.72904
-5.72904
-5.72904
-5.72904
-5.72904
-5.72904
-5.72904
-5.72904
-5.72908
-5.72961
-5.73085
-5.73285
-5.73566
-5.73924
-5.74363
-5.74835
-5.75403
-5.75863
-5.76395
-5.76774
-5.77064
-5.76703
-5.76555
-5.74577
)
;
    }
    defaultFaces
    {
        type            empty;
    }
}


// ************************************************************************* //
