/*--------------------------------*- C++ -*----------------------------------*\
| =========                 |                                                 |
| \\      /  F ield         | OpenFOAM: The Open Source CFD Toolbox           |
|  \\    /   O peration     | Version:  2312                                  |
|   \\  /    A nd           | Website:  www.openfoam.com                      |
|    \\/     M anipulation  |                                                 |
\*---------------------------------------------------------------------------*/
FoamFile
{
    version     2.0;
    format      ascii;
    arch        "LSB;label=32;scalar=64";
    class       volScalarField;
    location    "0.75";
    object      p_rgh;
}
// * * * * * * * * * * * * * * * * * * * * * * * * * * * * * * * * * * * * * //

dimensions      [1 -1 -2 0 0 0 0];

internalField   nonuniform List<scalar> 
2268
(
3557.05
3574.27
3600.48
3656.24
3758.84
3936.53
4244.54
4708.44
5285.96
5846.71
6290.42
6601.39
6800.16
6908.63
6952.93
6961.34
6956.26
6952.57
6958.91
6978.56
7008.3
7031.36
7056.1
3551.59
3568.21
3592.43
3644.29
3741.73
3905.86
4203.99
4672.43
5276.43
5861.93
6315.39
6625.78
6819.89
6920.86
6957.57
6960.36
6951.87
6946.51
6952.78
6973.73
7005.68
7031.24
7058.84
3407.45
3434.2
3464.23
3525.91
3635.53
3821.14
4116.98
4592.74
5250.18
5886.77
6362.02
6672.39
6857.92
6944.94
6966.82
6958.78
6943.67
6935.03
6941.18
6964.81
7001.29
7031.4
7063.86
1780.21
1815.29
1852.56
1933.36
2084.2
2388.71
3047.96
4136.44
5202.38
5926.5
6435.35
6743.57
6915.87
6980.24
6979.49
6955.63
6931
6917.59
6923.77
6951.72
6995.32
7032.13
7072.09
1260.79
1260.54
1261.07
1263.05
1267.69
1279.66
1357.08
2085.76
4421.95
5970.23
6534.34
6836.7
6991.8
7024.95
6993.69
6949.64
6912.97
6893.4
6899.93
6934.09
6987.69
7033.19
7083.23
1259.85
1259.4
1259.49
1260.74
1264.23
1271.87
1287.6
1305.53
2405.29
5638.94
6655.08
6945.49
7081.64
7074.72
7005.55
6938.04
6887.27
6860.25
6867.95
6910.91
6978.13
7034.53
7098.41
1258.66
1257.9
1257.36
1257.46
1259.22
1263.74
1274.21
1283.53
1354.17
4235.92
6783.19
7057.47
7176.84
7120.47
7006.34
6913.93
6840.53
6788.11
6794.15
6860.78
6957.77
7033.93
7121.83
1257.26
1256.13
1254.89
1253.87
1253.67
1254.89
1258.48
1257.66
1217.13
2230.85
6166.22
7214.08
7199.46
6780.82
6035.89
5431.09
4966.19
4665.38
4634.96
4844.27
5162.89
5374.41
5756.77
2462.73
2139.37
2355.99
2391.37
2497.26
2878.04
3138.45
3193.37
3170.44
3084.83
3009.02
3223.7
3612.09
4041.67
3239.86
2352.73
2039.05
2212.97
2572.36
2348.55
1842.91
2131.5
2314.94
2328.72
2823.43
3133.92
3258.06
3290.27
3182.36
3064.79
3223.06
3617.97
3910.51
3029.27
2050.15
1775.16
1940.54
2268.38
1897.24
1853.14
2450.09
2766.53
2585.54
2395.1
2516.2
2886.43
2936.91
2575.22
2183.05
2541.97
3584.44
3544.51
2565.88
1670.66
1475.99
1689.58
2191.46
1790.81
2278.3
2341.57
1758.48
1458.01
1331.75
1389.36
1486.81
1533.52
1453.38
1299.89
1774.06
3498.01
3054.3
1855.75
1407
1335.47
1574.96
2155.36
2372.48
2142.65
1502.24
1141.82
1146.16
1186.82
1253.5
1318.73
1329.83
1220.53
1204.39
1581.1
2935.95
2522.3
1620.68
1340.63
1248.33
1409.87
2324.28
2627.85
1786.93
1109.19
1087.09
1110.91
1156.16
1244.49
1316.96
1394.08
1180.48
1187.19
1733.09
2036.2
2624.2
1564.17
1281.79
1179.96
1264.29
2262.13
2332.34
1427.56
1036.74
1002.67
1062.29
1139.72
1228.41
1328.86
1449.45
1197.89
1185.98
1734.99
1966.93
2140.93
1418.67
1207.32
1150.87
1227.76
2282.75
1504.56
1023.53
814.279
840.992
956.927
1109.34
1198.87
1306.69
1516.96
1547.07
1329.41
1495.33
2089.1
1328.61
1338.26
1148.15
1149.71
1268.32
2431.38
1254.89
1253.09
1250.56
1247.35
1243.73
1239.52
1232.83
1215.71
1166.2
1086.69
1986.3
3939.89
4258.08
3141.94
2225.71
1862.39
1669.46
1561.02
1571.07
1687.95
1867.99
1998.52
2240.71
1251.64
1248.53
1243.81
1237.24
1228.88
1218.36
1203.76
1178.99
1131.82
1048.83
930.296
880.314
902.526
931.385
951.943
965.914
979.251
1000.12
1033.96
1084.96
1156.05
1229
1303.78
1249.31
1244.55
1237.58
1227.71
1214.96
1199.59
1181.61
1158.25
1123.81
1074.18
1015.31
973.944
956.29
951.639
941.973
922.662
901.89
881.78
876.367
877.098
947.179
1093.46
1249.06
1249.98
1242.43
1233.3
1220.36
1203.13
1182.76
1163.74
1145.42
1116.49
1081.36
1056.04
1020.06
957.567
843.321
669.732
535.153
425.614
360.572
369.376
439.755
528.455
725.94
868.452
1254.15
1242.81
1232.36
1217.24
1163.21
999.076
916.536
873.848
873.383
824.714
756.128
625.054
468.625
300.779
210.518
142.818
95.1668
69.2259
120.822
219.286
527.027
718.816
765.869
1243.08
1089.88
971.161
873.953
692.614
589.106
540.322
513.549
517.377
487.007
352.188
203.062
70.6133
6.82739
2.7662
3.13947
3.29964
4.61163
25.3536
377.23
617.486
612.099
440.46
677.574
319.761
215.684
157.029
169.953
169.188
111.687
85.6715
48.4384
8.75719
1.48959
1.57074
1.69487
1.98475
2.24668
2.58121
2.92307
3.22743
14.7284
388.649
626.852
406.331
13.2319
29.7891
35.4936
35.0267
36.3498
28.3346
1.0109
1.03699
1.0391
1.07844
1.16259
1.26028
1.39375
1.56124
1.79384
2.02374
2.2155
2.35892
2.20496
5.98965
143.41
234.418
94.3546
-0.874603
23.1157
20.1823
3.28414
0.864069
0.796762
0.872199
0.933296
0.958134
1.00093
1.10437
1.22566
1.32423
1.43991
1.5759
1.69489
1.75221
1.65014
1.1764
-0.276362
-1.71917
-1.57629
-1.60449
-1.46913
21.6142
1.5188
0.741265
0.732962
0.717122
0.783455
0.843257
0.895087
0.95407
1.02828
1.11024
1.18702
1.26887
1.342
1.37769
1.33302
1.1236
0.604871
-0.415689
-1.06669
-1.2906
-1.44298
-1.58275
8.86515
0.666082
0.734469
0.636663
0.644653
0.698214
0.755384
0.809825
0.871477
0.935738
0.997404
1.05252
1.09871
1.12385
1.10577
1.01174
0.79559
0.403811
-0.171473
-0.725338
-1.05037
-1.29857
-1.5144
0.454126
0.549989
0.680329
0.553294
0.563833
0.619157
0.678995
0.738147
0.794004
0.845313
0.889475
0.923191
0.941517
0.934688
0.886959
0.777158
0.581953
0.283626
-0.0781783
-0.484178
-0.816915
-1.09572
-1.34762
0.398258
0.414442
0.490918
0.462559
0.498698
0.55394
0.616491
0.672519
0.719812
0.758909
0.788045
0.804167
0.802676
0.776453
0.715008
0.605879
0.437889
0.20843
-0.0597504
-0.327132
-0.605468
-0.892272
-1.1212
0.353043
0.330623
0.384519
0.406887
0.45507
0.509489
0.563804
0.612416
0.651022
0.679475
0.695992
0.698388
0.683577
0.646621
0.580905
0.479296
0.337609
0.156523
-0.0530499
-0.274851
-0.465111
-0.660987
-0.891864
0.358701
0.3344
0.36301
0.390519
0.432773
0.479658
0.524917
0.562267
0.590257
0.60788
0.613936
0.60654
0.583278
0.541253
0.476524
0.385187
0.265462
0.119858
-0.0456204
-0.223324
-0.390217
-0.461039
-0.616395
0.393401
0.370167
0.380492
0.399187
0.428857
0.462586
0.494014
0.519106
0.5363
0.544323
0.541953
0.527768
0.499574
0.456226
0.39566
0.314016
0.212759
0.0938797
-0.0383069
-0.177881
-0.308843
-0.381665
-0.460812
0.432592
0.414335
0.409539
0.415019
0.43031
0.449439
0.467377
0.48098
0.488435
0.488431
0.47973
0.461059
0.430926
0.388095
0.331413
0.259704
0.173754
0.0756111
-0.03131
-0.141017
-0.242898
-0.355434
-0.416481
0.456221
0.443451
0.429322
0.424412
0.427673
0.434553
0.441404
0.44564
0.445431
0.439361
0.426183
0.404767
0.374009
0.332954
0.281031
0.218024
0.144706
0.0628489
-0.0248156
-0.114408
-0.203002
-0.290202
-0.366145
0.456213
0.447146
0.431246
0.421369
0.417064
0.415665
0.414738
0.412222
0.406461
0.396095
0.379975
0.357124
0.326717
0.288096
0.241019
0.185643
0.122732
0.053762
-0.0191864
-0.0937345
-0.16701
-0.23703
-0.29943
0.437445
0.430774
0.417614
0.40694
0.399136
0.393096
0.387357
0.380414
0.370928
0.35775
0.3399
0.316577
0.287175
0.251271
0.208792
0.160035
0.105713
0.047021
-0.0144397
-0.0767949
-0.137953
-0.19643
-0.248963
0.4095
0.404732
0.394956
0.385255
0.376411
0.368181
0.359773
0.350183
0.338426
0.323607
0.304954
0.281848
0.253856
0.220713
0.182452
0.139402
0.0921891
0.0417787
-0.0105968
-0.063507
-0.115387
-0.165112
-0.21033
0.379247
0.375835
0.368504
0.360086
0.351313
0.342271
0.332566
0.321577
0.308621
0.293047
0.27428
0.25187
0.225516
0.195065
0.160614
0.12248
0.0811924
0.037527
-0.00756562
-0.0529977
-0.0976002
-0.140501
-0.180035
0.349526
0.346923
0.341144
0.333834
0.325524
0.316375
0.306207
0.294647
0.281248
0.265558
0.24717
0.225774
0.201168
0.173289
0.14226
0.108368
0.0720628
0.0339587
-0.00520641
-0.0445995
-0.083346
-0.12076
-0.155642
0.32116
0.319011
0.31423
0.307795
0.300051
0.291145
0.281003
0.269411
0.256082
0.240716
0.223042
0.20286
0.180041
0.154587
0.126628
0.0964205
0.0643417
0.03088
-0.00338745
-0.0378194
-0.0717536
-0.104647
-0.135612
0.294337
0.292464
0.288362
0.282615
0.275441
0.266951
0.257123
0.245836
0.232914
0.218169
0.201428
0.182569
0.161527
0.138343
0.113145
0.0861608
0.0577031
0.0281654
-0.00199843
-0.0322904
-0.0622021
-0.0913047
-0.118931
0.269073
0.267391
0.263779
0.258593
0.251966
0.243979
0.23463
0.223857
0.211558
0.19762
0.181942
0.164457
0.145152
0.124082
0.101376
0.0772315
0.0519102
0.0257309
-0.000946198
-0.0277318
-0.0542325
-0.0801123
-0.104862
0.24531
0.243781
0.240552
0.235843
0.229739
0.222294
0.213518
0.203384
0.191836
0.178814
0.164267
0.148168
0.130534
0.111432
0.090984
0.0693623
0.0467877
0.0235197
-0.000154435
-0.0239284
-0.0474963
-0.0705943
-0.0928368
0.222974
0.221576
0.218666
0.214381
0.208776
0.20189
0.193737
0.18431
0.173585
0.161535
0.148143
0.133411
0.117373
0.100101
0.0817086
0.0623478
0.0422041
0.0214904
0.000436987
-0.0207139
-0.0417233
-0.0623849
-0.0824058
0.201969
0.200694
0.198063
0.194166
0.189042
0.182716
0.175208
0.166521
0.15665
0.145593
0.133351
0.119948
0.105426
0.089857
0.0733472
0.056029
0.0380591
0.0196124
0.000875447
-0.0179592
-0.0367039
-0.0551966
-0.073218
0.182202
0.181041
0.178664
0.175131
0.170469
0.164699
0.15784
0.149901
0.140893
0.130823
0.11971
0.107586
0.0944983
0.0805182
0.0657407
0.050282
0.0342743
0.0178622
0.00119796
-0.0155643
-0.0322764
-0.0488122
-0.0650045
0.16357
0.16252
0.16038
0.157191
0.152975
0.147749
0.141532
0.134338
0.126182
0.117082
0.107064
0.096164
0.0844331
0.0719376
0.0587622
0.0450082
0.0307877
0.0162209
0.00143248
-0.0134529
-0.0283177
-0.0430622
-0.0575609
0.145978
0.145033
0.143116
0.140255
0.13647
0.131774
0.126186
0.119721
0.112399
0.104242
0.0952788
0.0855478
0.0750991
0.0639943
0.052308
0.0401279
0.0275491
0.0146718
0.00159916
-0.0115672
-0.0247339
-0.0378219
-0.050733
0.129322
0.128479
0.126775
0.124229
0.12086
0.116678
0.111701
0.105946
0.0994334
0.0921873
0.0842375
0.0756212
0.0663859
0.0565878
0.0462925
0.035575
0.024516
0.0131996
0.00171155
-0.00986534
-0.0214556
-0.0329948
-0.0444068
0.113506
0.112761
0.111261
0.109019
0.106051
0.102366
0.0979824
0.092915
0.0871847
0.0808154
0.0738367
0.0662836
0.0581989
0.0496331
0.0406432
0.0312933
0.0216518
0.0117893
0.00177687
-0.00831733
-0.0184318
-0.0285138
-0.0385012
0.0984327
0.097784
0.0964801
0.0945298
0.09195
0.0887463
0.0849358
0.0805332
0.0755578
0.0700322
0.0639842
0.0574458
0.0504549
0.0430558
0.0352975
0.0272343
0.0189239
0.0104254
0.00179747
-0.00690358
-0.0156267
-0.0243282
-0.0329571
0.084012
0.0834548
0.0823398
0.0806714
0.0784664
0.0757277
0.0724719
0.0687115
0.0644642
0.0597507
0.0545957
0.0490278
0.0430799
0.0367901
0.0301997
0.0233542
0.0163019
0.00909142
0.0017714
-0.00561134
-0.0130149
-0.0204029
-0.0277316
0.0701468
0.0696802
0.0687489
0.0673537
0.0655119
0.0632234
0.0605043
0.0573648
0.0538207
0.0498898
0.0455937
0.0409567
0.0360072
0.0307765
0.0252993
0.019613
0.0137568
0.00777046
0.00169406
-0.004434
-0.0105792
-0.0167119
-0.0227936
0.0567511
0.056372
0.0556191
0.0544893
0.053
0.0511484
0.0489498
0.0464118
0.0435481
0.0403737
0.036906
0.0331655
0.0291753
0.0249607
0.02055
0.0159732
0.011261
0.00644536
0.00155841
-0.00336888
-0.00830887
-0.0132371
-0.0181203
0.0437313
0.0434404
0.0428627
0.0419921
0.0408462
0.0394199
0.0377276
0.0357742
0.0335713
0.0311304
0.028465
0.0255913
0.022527
0.0192924
0.0159092
0.0124
0.0087884
0.00509883
0.00135575
-0.00241663
-0.00619623
-0.00996501
-0.0136925
0.0310028
0.0307997
0.0303942
0.0297774
0.0289672
0.0279565
0.0267587
0.0253758
0.0238171
0.0220907
0.0202064
0.0181748
0.0160092
0.0137249
0.0113372
0.0088614
0.00631453
0.00371426
0.00107732
-0.00157803
-0.0042351
-0.00688156
-0.00949245
0.0184766
0.0183669
0.0181323
0.0177651
0.017284
0.0166813
0.0159683
0.0151449
0.0142173
0.0131906
0.0120703
0.0108615
0.00957384
0.00821693
0.00679958
0.00533003
0.00381946
0.00227882
0.000718243
-0.000851189
-0.0024171
-0.0039745
-0.00550431
0.00606822
0.00607128
0.00600543
0.00588318
0.00572539
0.00552477
0.00528948
0.00501736
0.0047114
0.00437296
0.00400354
0.00360473
0.00318061
0.0027342
0.00226836
0.00178553
0.00129038
0.000787143
0.000280111
-0.000225739
-0.000722125
-0.00121031
-0.00167274
2864.15
3038.41
3429.49
3392.2
1327.14
1294.59
1251.3
1231.28
1048.44
866.501
865.4
944.034
904.233
943.88
982.867
990.509
829.52
845.937
857.053
872.228
509.876
590.3
599.073
668.802
6.12388
3.38245
50.9693
240.41
-1.26259
-1.28312
-1.36882
-1.30366
-1.54648
-1.56796
-1.59738
-1.61284
-1.70665
-1.73665
-1.73457
-1.70678
-1.72983
-1.78049
-1.78651
-1.79481
-1.55167
-1.6706
-1.74061
-1.74596
-1.28683
-1.38861
-1.47269
-1.52003
-1.04098
-1.12593
-1.19835
-1.25242
-0.767972
-0.801683
-0.860942
-0.974407
-0.552643
-0.651452
-0.745184
-0.709589
-0.496864
-0.56917
-0.610874
-0.619172
-0.424467
-0.462147
-0.492977
-0.519869
-0.347353
-0.378133
-0.403894
-0.426667
-0.288955
-0.314462
-0.336268
-0.35589
-0.244277
-0.265753
-0.284544
-0.30168
-0.209304
-0.227722
-0.244156
-0.259323
-0.181242
-0.197335
-0.211932
-0.225545
-0.158276
-0.172548
-0.185671
-0.198037
-0.139174
-0.151963
-0.163869
-0.175195
-0.123057
-0.134592
-0.145445
-0.155865
-0.109249
-0.119689
-0.129608
-0.139206
-0.0972311
-0.106688
-0.115748
-0.12458
-0.0865992
-0.095156
-0.103418
-0.111519
-0.0770532
-0.0847732
-0.0922737
-0.0996667
-0.0683604
-0.0752912
-0.0820636
-0.0887646
-0.0603517
-0.0665318
-0.0725976
-0.0786206
-0.0529004
-0.0583621
-0.063746
-0.0691048
-0.0459214
-0.0506956
-0.0554169
-0.0601259
-0.0393499
-0.0434642
-0.0475459
-0.0516224
-0.0331415
-0.0366235
-0.0400862
-0.0435491
-0.0272625
-0.0301384
-0.0330046
-0.0358745
-0.0216884
-0.0239834
-0.0262753
-0.0285729
-0.0163982
-0.0181371
-0.0198764
-0.0216239
-0.0113701
-0.012575
-0.0137818
-0.0149968
-0.00659462
-0.00729381
-0.00799247
-0.00870375
-0.00198781
-0.00218628
-0.00238208
-0.0025954
1510.04
794.729
725.151
669.036
735.972
990.575
1174.18
1262.72
1388.59
1950.19
1821.53
1459.63
1618.97
1182.29
1191.17
1142.35
1145.44
1303.71
2666.77
891.94
809.782
694.874
617.67
624.108
712.628
1032.19
1228.34
1309.68
1457.05
1848.06
1773.79
1719.8
1524.68
1211.12
1205.61
1330.29
1760.8
2926.38
1028.16
970.961
864.853
608.442
504.444
576.115
771.048
1079.58
1202.77
1254.17
1303.23
1985.14
2130.05
2189.17
2179.94
2176.36
2633.67
3249.8
3498.6
980.034
943.313
907.404
766.705
462.998
417.275
502.316
719.856
949.88
1081.01
1165.19
1273.7
1638.2
2058.15
2363.79
2393.51
3167.74
3650.24
3737.74
891.127
887.255
884.25
886.553
637.952
404.537
402.985
440.091
549.351
711.252
835.716
907.616
931.999
1167.89
1496.78
1718.41
2275.17
3593.75
3457.66
772.753
817.91
847.57
877.932
883.394
572.24
400.792
401.871
406.879
561.052
793.562
901.68
928.526
945.461
1030.05
1261.23
1833.46
2542.6
4531.74
496.117
742.45
808.085
859.187
911.261
964.954
689.093
448.86
402.961
403.477
544.345
807.624
968.533
1076.83
1060.44
1071.67
1639.62
2597.68
7713.23
10.3833
396.854
766.447
837.728
898.722
957.289
1016.18
962.273
633.956
491.044
436.805
432.429
648.447
1074.28
1125.15
1110.56
1615.86
2677.67
8292.94
-1.5633
-1.18982
361.94
788.33
882.341
944.297
999.622
1048.96
1091.21
1082.69
958.27
916.55
926.617
1047.19
1118.34
1128.11
1514.07
2516.84
8594.13
-1.6414
-1.46398
-1.25868
306.87
798.178
928.277
985.938
1035.57
1075.02
1102.45
1116.84
1120.44
1117.53
1110.02
1121.31
1134.93
1288.27
2920.02
7391.86
-1.72838
-1.51734
-1.29883
-1.10466
229.389
770.974
971.335
1021.87
1062.31
1091.09
1106.36
1111.84
1115.64
1119.7
1132.36
1148.35
1260.53
2521.37
1170.91
-1.67017
-1.51762
-1.2931
-1.07763
-0.924477
127.177
697.416
1012.36
1052.49
1083.5
1097.77
1101.52
1110.4
1133.04
1151.24
1172.74
1263.39
1570.87
1214.8
-1.54193
-1.41745
-1.25005
-1.05495
-0.891753
-0.80438
29.946
553.722
993.55
1082.03
1104.44
1112.6
1125.7
1152.44
1193.19
1213.49
1259.72
1268.06
1386.43
-1.30411
-1.25554
-1.12427
-1.00232
-0.889232
-0.772734
-0.657753
-0.507002
289.323
831.834
1094.17
1123.45
1143.69
1180
1318.61
1380.5
1719.09
2463.55
3897.25
-1.07132
-1.05937
-0.997095
-0.915625
-0.829337
-0.747485
-0.628213
-0.514578
-0.557487
33.1638
492.298
969.079
1160.57
1188.83
1302.45
1498.92
3744.84
4585.54
4582.07
-0.481194
-0.473689
-0.630627
-0.80642
-0.756186
-0.679436
-0.599348
-0.526717
-0.460159
-0.381153
-0.396179
110.006
605.518
1019.54
1158.03
1296.67
1824.34
1972.24
1839.75
-0.261153
-0.286939
-0.386365
-0.685987
-0.661517
-0.616834
-0.558861
-0.497409
-0.447279
-0.38198
-0.335602
-0.375099
-0.459069
129.179
310.145
351.838
341.867
344.175
329.795
-0.424822
-0.343067
-0.494521
-0.595474
-0.579111
-0.549117
-0.510085
-0.466316
-0.410874
-0.355328
-0.328346
-0.329939
-0.351932
-0.408794
-0.280881
0.105368
0.747845
1.84088
2.94353
-0.459969
-0.487512
-0.505769
-0.51179
-0.505516
-0.488708
-0.463438
-0.431223
-0.392066
-0.347354
-0.317041
-0.330231
-0.398202
-0.466186
-0.269645
0.286004
0.77175
1.73145
2.73294
-0.384327
-0.410267
-0.430454
-0.441691
-0.443322
-0.436722
-0.423738
-0.405688
-0.384443
-0.364437
-0.353709
-0.369117
-0.443234
-0.503575
-0.316215
0.936341
1.18627
2.46319
93.92
-0.3265
-0.350743
-0.371245
-0.385504
-0.392775
-0.394172
-0.391181
-0.385203
-0.37861
-0.375283
-0.381499
-0.404592
-0.444992
-0.480134
-0.420562
-0.510876
-0.28756
-0.642369
703.669
-0.281505
-0.304607
-0.325068
-0.341149
-0.352338
-0.359588
-0.364104
-0.367197
-0.370684
-0.377033
-0.388854
-0.408599
-0.436511
-0.461287
-0.458135
-0.492077
1.01844
-0.384968
826.063
-0.245807
-0.268141
-0.288496
-0.305764
-0.319707
-0.331155
-0.341139
-0.350746
-0.361273
-0.374262
-0.391054
-0.412108
-0.435073
-0.454131
-0.452432
-0.508569
26.7525
-0.236276
858.226
-0.216811
-0.238501
-0.258714
-0.276778
-0.292657
-0.30709
-0.320972
-0.33521
-0.350757
-0.368662
-0.389741
-0.414021
-0.439516
-0.463386
-0.473638
-0.505109
34.016
-0.225364
890.511
-0.192704
-0.213735
-0.233706
-0.252227
-0.269395
-0.285879
-0.302477
-0.31998
-0.33917
-0.360911
-0.385976
-0.414754
-0.446292
-0.481345
-0.520368
-0.548488
33.5316
-0.357467
883.829
-0.172226
-0.192512
-0.212083
-0.230733
-0.248644
-0.266424
-0.284814
-0.304523
-0.326278
-0.350933
-0.379426
-0.412703
-0.452075
-0.499313
-0.583645
-0.60448
1.29925
4.41691
173.325
-0.154473
-0.173897
-0.192884
-0.211346
-0.229515
-0.247949
-0.267342
-0.288345
-0.311686
-0.338259
-0.369172
-0.405766
-0.450634
-0.503523
-0.60821
0.365166
-0.0741135
6.27641
-0.548213
-0.138779
-0.157219
-0.175432
-0.193407
-0.211398
-0.229966
-0.24961
-0.271057
-0.295017
-0.322396
-0.354353
-0.392264
-0.439834
-0.497336
-0.600489
6.75019
0.796447
7.25109
-0.361845
-0.124653
-0.141991
-0.159248
-0.176458
-0.193867
-0.211992
-0.231315
-0.25244
-0.276081
-0.303137
-0.334786
-0.3722
-0.419782
-0.481651
-0.582913
6.94884
6.77016
7.65595
0.182598
-0.111735
-0.127865
-0.144006
-0.160212
-0.176707
-0.193965
-0.212394
-0.232502
-0.254944
-0.280577
-0.310563
-0.345773
-0.39075
-0.454732
-0.547318
4.12019
5.71212
4.0893
0.465377
-0.0997614
-0.114599
-0.129492
-0.144499
-0.159859
-0.175891
-0.192953
-0.211455
-0.231933
-0.25513
-0.282059
-0.313163
-0.351148
-0.407002
-0.487804
-0.668442
-0.646731
-0.663458
-0.305801
-0.088547
-0.10203
-0.115579
-0.129247
-0.143249
-0.157827
-0.173207
-0.189688
-0.207633
-0.227561
-0.250107
-0.275142
-0.302418
-0.338314
-0.383307
-0.466717
-0.476304
-0.460776
-0.394163
-0.0779657
-0.0900567
-0.102202
-0.114451
-0.12698
-0.139942
-0.153461
-0.167696
-0.182803
-0.198977
-0.216299
-0.234017
-0.249761
-0.264516
-0.277342
-0.305459
-0.309503
-0.278649
-0.213962
-0.0679342
-0.0786196
-0.0893313
-0.100137
-0.111147
-0.122427
-0.134036
-0.145996
-0.158263
-0.170716
-0.182965
-0.193977
-0.200419
-0.199019
-0.192848
-0.193139
-0.182312
-0.144883
-0.0813475
-0.0583976
-0.0676879
-0.0769805
-0.0863426
-0.0958311
-0.105464
-0.115232
-0.125058
-0.134748
-0.143979
-0.152061
-0.157921
-0.158634
-0.150313
-0.13601
-0.121775
-0.100914
-0.0624297
-0.00268649
-0.0493178
-0.0572398
-0.0651487
-0.0730992
-0.0811254
-0.0892114
-0.0973016
-0.105253
-0.112788
-0.119501
-0.124582
-0.127083
-0.124831
-0.114671
-0.0981582
-0.0795671
-0.0557265
-0.0209227
0.0320921
-0.0406672
-0.0472593
-0.0538379
-0.0604394
-0.0670978
-0.0737818
-0.0804112
-0.0868193
-0.0926928
-0.0976398
-0.100841
-0.101534
-0.0981086
-0.0886302
-0.0740357
-0.0566542
-0.0346476
-0.00637203
0.037843
-0.0324221
-0.0377256
-0.0430243
-0.0483692
-0.0537788
-0.0592288
-0.0646389
-0.0698495
-0.0745498
-0.0784059
-0.0806575
-0.0807597
-0.0776017
-0.0699969
-0.0585494
-0.0450087
-0.0274004
-0.00671074
0.0278141
-0.0245636
-0.0286332
-0.0327528
-0.0368909
-0.0411611
-0.045544
-0.0499738
-0.054319
-0.0582934
-0.0616419
-0.0636714
-0.0640515
-0.0619801
-0.0568088
-0.0488289
-0.039516
-0.0267212
-0.0134848
0.0113898
-0.0170517
-0.0198996
-0.0227891
-0.0259285
-0.0291897
-0.0326558
-0.036324
-0.0401039
-0.0437407
-0.047041
-0.0493822
-0.050604
-0.0499678
-0.0473123
-0.0425447
-0.0370099
-0.0281342
-0.0211888
-0.00450407
-0.00993399
-0.0116792
-0.0135988
-0.0155852
-0.017876
-0.0205693
-0.0236644
-0.0270595
-0.0305468
-0.0340689
-0.0369782
-0.0393402
-0.0404127
-0.0402605
-0.0384948
-0.0361263
-0.0297983
-0.0272618
-0.0150595
-0.00298692
-0.00359022
-0.00443486
-0.00563095
-0.0071731
-0.00909003
-0.0114479
-0.0143044
-0.0176255
-0.0214625
-0.0253057
-0.0293747
-0.0325983
-0.0354873
-0.0369272
-0.0377215
-0.0329649
-0.0330921
-0.0193468
)
;

boundaryField
{
    leftWall
    {
        type            fixedFluxPressure;
        gradient        uniform 0;
        value           nonuniform List<scalar> 
50
(
3557.05
3551.59
3407.45
1780.21
1260.79
1259.85
1258.66
1257.26
1254.89
1251.64
1249.31
1249.98
1254.15
1243.08
677.574
29.7891
23.1157
21.6142
8.86515
0.454126
0.398258
0.353043
0.358701
0.393401
0.432592
0.456221
0.456213
0.437445
0.4095
0.379247
0.349526
0.32116
0.294337
0.269073
0.24531
0.222974
0.201969
0.182202
0.16357
0.145978
0.129322
0.113506
0.0984327
0.084012
0.0701468
0.0567511
0.0437313
0.0310028
0.0184766
0.00606822
)
;
    }
    rightWall
    {
        type            fixedFluxPressure;
        gradient        uniform 0;
        value           nonuniform List<scalar> 
50
(
2572.36
2268.38
2191.46
2155.36
2324.28
2262.13
2282.75
2431.38
2666.77
2926.38
3498.6
3737.74
3457.66
4531.74
7713.23
8292.94
8594.13
7391.86
1170.91
1214.8
1386.43
3897.25
4582.07
1839.75
329.795
2.94353
2.73294
93.92
703.669
826.063
858.226
890.511
883.829
173.325
-0.548213
-0.361845
0.182598
0.465377
-0.305801
-0.394163
-0.213962
-0.0813475
-0.00268649
0.0320921
0.037843
0.0278141
0.0113898
-0.00450407
-0.0150595
-0.0193468
)
;
    }
    lowerWall
    {
        type            fixedFluxPressure;
        gradient        uniform 0;
        value           nonuniform List<scalar> 
62
(
3557.05
3574.27
3600.48
3656.24
3758.84
3936.53
4244.54
4708.44
5285.96
5846.71
6290.42
6601.39
6800.16
6908.63
6952.93
6961.34
6956.26
6952.57
6958.91
6978.56
7008.3
7031.36
7056.1
7056.1
7058.84
7063.86
7072.09
7083.23
7098.41
7121.83
5756.77
2864.15
3038.41
3429.49
3392.2
2462.73
2348.55
1897.24
1790.81
2372.48
2627.85
2332.34
1504.56
2462.73
2139.37
2355.99
2391.37
2497.26
2878.04
3138.45
3193.37
3170.44
3084.83
3009.02
3223.7
3612.09
4041.67
3239.86
2352.73
2039.05
2212.97
2572.36
)
;
    }
    atmosphere
    {
        type            totalPressure;
        rho             rho;
        psi             none;
        gamma           1;
        p0              uniform 0;
        value           nonuniform List<scalar> 
46
(
0
0
0
0
0
0
0
0
0
0
0
0
0
0
0
0
0
0
0
0
0
0
0
0
0
0
0
0
0
0
-4.40258e-05
-0.000570115
-0.00180686
-0.00381336
-0.00661502
-0.0101998
-0.01459
-0.0193074
-0.0249897
-0.0295885
-0.0349092
-0.0386994
-0.0415973
-0.037985
-0.0365121
-0.0167325
)
;
    }
    defaultFaces
    {
        type            empty;
    }
}


// ************************************************************************* //
