/*--------------------------------*- C++ -*----------------------------------*\
| =========                 |                                                 |
| \\      /  F ield         | OpenFOAM: The Open Source CFD Toolbox           |
|  \\    /   O peration     | Version:  2312                                  |
|   \\  /    A nd           | Website:  www.openfoam.com                      |
|    \\/     M anipulation  |                                                 |
\*---------------------------------------------------------------------------*/
FoamFile
{
    version     2.0;
    format      ascii;
    arch        "LSB;label=32;scalar=64";
    class       surfaceScalarField;
    location    "0.75";
    object      phi;
}
// * * * * * * * * * * * * * * * * * * * * * * * * * * * * * * * * * * * * * //

dimensions      [0 3 -1 0 0 0 0];

oriented        oriented;

internalField   nonuniform List<scalar> 
4432
(
1.48713e-06
-1.48713e-06
2.84784e-06
-1.36071e-06
3.99837e-06
-1.15053e-06
4.72945e-06
-7.31075e-07
4.75379e-06
-2.43425e-08
3.57968e-06
1.17412e-06
7.29606e-07
2.85007e-06
-3.84672e-06
4.57633e-06
-9.19946e-06
5.35274e-06
-1.37674e-05
4.56794e-06
-1.66721e-05
2.90468e-06
-1.78381e-05
1.16603e-06
-1.75679e-05
-2.70247e-07
-1.62986e-05
-1.2693e-06
-1.44822e-05
-1.81631e-06
-1.24345e-05
-2.04771e-06
-1.03373e-05
-2.09726e-06
-8.30341e-06
-2.03386e-06
-6.3949e-06
-1.90851e-06
-4.60693e-06
-1.78797e-06
-2.87459e-06
-1.73234e-06
-1.2049e-06
-1.66968e-06
-1.2049e-06
1.45624e-06
-2.94337e-06
2.83296e-06
-2.73743e-06
4.01651e-06
-2.33409e-06
4.80469e-06
-1.51925e-06
4.95083e-06
-1.70487e-07
3.8872e-06
2.23775e-06
1.03276e-06
5.70451e-06
-3.77065e-06
9.37974e-06
-9.41083e-06
1.09929e-05
-1.41479e-05
9.30499e-06
-1.70605e-05
5.81729e-06
-1.81529e-05
2.25843e-06
-1.77646e-05
-6.58495e-07
-1.63934e-05
-2.64059e-06
-1.45077e-05
-3.70192e-06
-1.24259e-05
-4.12952e-06
-1.0317e-05
-4.20622e-06
-8.2899e-06
-4.06092e-06
-6.41753e-06
-3.78088e-06
-4.70342e-06
-3.50208e-06
-3.09518e-06
-3.34058e-06
-1.61011e-06
-3.15475e-06
-2.81501e-06
1.40389e-06
-4.34725e-06
2.76925e-06
-4.1028e-06
3.98938e-06
-3.55421e-06
4.87896e-06
-2.40883e-06
5.18639e-06
-4.77913e-07
4.29413e-06
3.13001e-06
1.37141e-06
8.62723e-06
-3.86492e-06
1.46161e-05
-9.99765e-06
1.71256e-05
-1.4978e-05
1.42854e-05
-1.78651e-05
8.7043e-06
-1.88019e-05
3.1953e-06
-1.82338e-05
-1.22665e-06
-1.66784e-05
-4.196e-06
-1.46751e-05
-5.70521e-06
-1.25313e-05
-6.27334e-06
-1.03896e-05
-6.34789e-06
-8.35013e-06
-6.10038e-06
-6.48999e-06
-5.64102e-06
-4.808e-06
-5.18407e-06
-3.24877e-06
-4.89981e-06
-1.83869e-06
-4.56484e-06
-4.65369e-06
1.16762e-06
-5.51488e-06
2.33803e-06
-5.27321e-06
3.37363e-06
-4.58981e-06
4.18887e-06
-3.22407e-06
4.58241e-06
-8.71458e-07
4.05773e-06
3.6547e-06
1.24618e-06
1.14388e-05
-4.47074e-06
2.0333e-05
-1.11377e-05
2.37926e-05
-1.64293e-05
1.9577e-05
-1.92717e-05
1.15467e-05
-1.9984e-05
3.90761e-06
-1.91015e-05
-2.10913e-06
-1.72664e-05
-6.03113e-06
-1.50905e-05
-7.88114e-06
-1.28722e-05
-8.49163e-06
-1.06979e-05
-8.52217e-06
-8.64559e-06
-8.15269e-06
-6.78789e-06
-7.49873e-06
-5.11301e-06
-6.85895e-06
-3.55571e-06
-6.4571e-06
-2.14752e-06
-5.97303e-06
-6.80122e-06
-2.08949e-07
-5.30593e-06
-6.62376e-07
-4.81978e-06
-1.22911e-06
-4.02307e-06
-2.01492e-06
-2.43824e-06
-3.23312e-06
3.46751e-07
-4.9645e-06
5.38609e-06
-7.8168e-06
1.42911e-05
-1.25651e-05
2.50813e-05
-1.71008e-05
2.83284e-05
-2.04871e-05
2.29632e-05
-2.21694e-05
1.3229e-05
-2.20819e-05
3.82008e-06
-2.06067e-05
-3.58427e-06
-1.83685e-05
-8.26938e-06
-1.59732e-05
-1.02764e-05
-1.36411e-05
-1.08237e-05
-1.1388e-05
-1.07753e-05
-9.28794e-06
-1.02527e-05
-7.40435e-06
-9.38231e-06
-5.6895e-06
-8.57381e-06
-4.04266e-06
-8.10394e-06
-2.47977e-06
-7.53592e-06
-9.28099e-06
-1.63398e-06
-3.67195e-06
-3.46374e-06
-2.99002e-06
-5.48818e-06
-1.99863e-06
-7.73476e-06
-1.91657e-07
-1.01539e-05
2.76591e-06
-1.2769e-05
8.00116e-06
-1.59015e-05
1.74236e-05
-2.14826e-05
3.06625e-05
-2.89676e-05
3.58133e-05
-2.80341e-05
2.20298e-05
-2.71718e-05
1.23667e-05
-2.57212e-05
2.3695e-06
-2.33095e-05
-5.99591e-06
-2.03349e-05
-1.12441e-05
-1.74123e-05
-1.3199e-05
-1.47199e-05
-1.35162e-05
-1.22255e-05
-1.32697e-05
-1.00104e-05
-1.24678e-05
-8.09569e-06
-1.1297e-05
-6.33791e-06
-1.03316e-05
-4.55789e-06
-9.88396e-06
-2.62325e-06
-9.47056e-06
-1.19042e-05
-2.21159e-06
-1.46036e-06
-4.52299e-06
-6.78627e-07
-7.00852e-06
4.86896e-07
-9.68358e-06
2.48341e-06
-1.25974e-05
5.67971e-06
-1.57971e-05
1.12008e-05
-1.95641e-05
2.11906e-05
-2.478e-05
3.58784e-05
-3.39488e-05
4.49822e-05
-3.62912e-05
2.43722e-05
-3.35702e-05
9.6456e-06
-3.06188e-05
-5.81819e-07
-2.67222e-05
-9.89259e-06
-2.23897e-05
-1.55766e-05
-1.85587e-05
-1.70299e-05
-1.53163e-05
-1.67586e-05
-1.25061e-05
-1.60799e-05
-1.01831e-05
-1.47908e-05
-8.28271e-06
-1.31974e-05
-6.51696e-06
-1.20973e-05
-4.67206e-06
-1.17289e-05
-2.29511e-06
-1.18475e-05
-1.41994e-05
-2.38855e-06
9.28179e-07
-4.83314e-06
1.76597e-06
-7.3896e-06
3.04335e-06
-1.00575e-05
5.1513e-06
-1.29056e-05
8.52782e-06
-1.59586e-05
1.42538e-05
-1.90136e-05
2.42456e-05
-2.25813e-05
3.94461e-05
-2.90373e-05
5.14382e-05
-3.82078e-05
3.35426e-05
-3.7827e-05
9.26489e-06
-3.41316e-05
-4.27727e-06
-2.88105e-05
-1.52137e-05
-2.32298e-05
-2.11572e-05
-1.86485e-05
-2.16112e-05
-1.49935e-05
-2.04135e-05
-1.19839e-05
-1.90895e-05
-9.63006e-06
-1.71447e-05
-7.80646e-06
-1.5021e-05
-6.10001e-06
-1.38038e-05
-4.38101e-06
-1.34479e-05
-2.04093e-06
-1.41876e-05
-1.62403e-05
-2.35725e-05
2.35725e-05
-1.95327e-05
-4.03988e-06
1.36722e-06
-2.08999e-05
1.71545e-05
-1.57873e-05
2.54481e-05
-8.29358e-06
3.34586e-05
-8.01054e-06
3.97505e-05
-6.29192e-06
4.59552e-05
-6.20466e-06
5.20932e-05
-6.13805e-06
5.6317e-05
-4.2238e-06
5.78421e-05
-1.52507e-06
5.71187e-05
7.23449e-07
4.84463e-05
8.67239e-06
1.5962e-05
3.24843e-05
-2.35747e-05
3.95367e-05
-3.97544e-05
1.61797e-05
-4.04501e-05
6.95752e-07
-2.99509e-05
-1.04993e-05
-2.99509e-05
-8.84952e-06
3.24221e-05
1.39838e-05
-2.68732e-05
3.39848e-05
-4.09009e-05
4.2346e-05
-2.41485e-05
4.39411e-05
-9.88865e-06
4.44001e-05
-8.46954e-06
4.54815e-05
-7.37327e-06
4.77171e-05
-8.44033e-06
5.05205e-05
-8.94144e-06
5.18003e-05
-5.50354e-06
5.06106e-05
-3.3539e-07
4.77911e-05
3.54291e-06
3.84181e-05
1.80454e-05
1.08187e-05
6.00837e-05
-2.13078e-05
7.16632e-05
-3.89883e-05
3.38602e-05
-4.40696e-05
5.77699e-06
-3.19937e-05
-2.25751e-05
-6.19446e-05
4.22278e-06
2.81993e-05
3.50787e-05
-5.77291e-05
4.29817e-05
-4.8804e-05
4.78208e-05
-2.89875e-05
5.03975e-05
-1.24654e-05
4.97912e-05
-7.86325e-06
4.90722e-05
-6.65427e-06
4.88602e-05
-8.22835e-06
5.01148e-05
-1.0196e-05
4.98245e-05
-5.2133e-06
4.40902e-05
5.39895e-06
3.99194e-05
7.7137e-06
3.11476e-05
2.68172e-05
1.03787e-05
8.08527e-05
-1.73002e-05
9.9342e-05
-3.96452e-05
5.62053e-05
-5.07203e-05
1.68521e-05
-3.3037e-05
-4.02583e-05
-9.49816e-05
2.48224e-05
3.37692e-06
4.00481e-05
-7.29548e-05
4.57203e-05
-5.44762e-05
4.81698e-05
-3.14371e-05
4.95491e-05
-1.38447e-05
4.76377e-05
-5.95186e-06
4.52545e-05
-4.27101e-06
4.19424e-05
-4.91624e-06
4.32769e-05
-1.15305e-05
4.27066e-05
-4.64299e-06
3.34718e-05
1.46337e-05
3.03506e-05
1.08349e-05
2.35658e-05
3.3602e-05
1.14361e-05
9.29824e-05
-7.37184e-06
0.00011815
-3.53483e-05
8.41818e-05
-4.79108e-05
2.94146e-05
-2.42617e-05
-6.39074e-05
-0.000119243
4.29401e-05
-3.95632e-05
4.0858e-05
-7.08726e-05
4.31836e-05
-5.68019e-05
4.18345e-05
-3.0088e-05
3.90986e-05
-1.11087e-05
3.38314e-05
-6.84638e-07
2.46356e-05
4.92477e-06
1.2903e-05
6.81633e-06
1.48097e-05
-1.34372e-05
1.95589e-05
-9.39222e-06
2.30192e-05
1.11734e-05
2.15669e-05
1.22872e-05
1.43916e-05
4.07773e-05
5.86365e-06
0.00010151
-5.09954e-06
0.000129113
-2.68552e-05
0.000105937
-3.54909e-05
3.80503e-05
-1.49948e-05
-8.44035e-05
-0.000134238
3.22401e-05
-7.18034e-05
3.68521e-05
-7.54845e-05
3.61762e-05
-5.6126e-05
3.36022e-05
-2.7514e-05
2.84994e-05
-6.00591e-06
2.16543e-05
6.16052e-06
1.23729e-05
1.42062e-05
1.28169e-06
1.79075e-05
-3.8151e-06
-8.34042e-06
3.07779e-06
-1.62851e-05
1.62961e-05
-2.0449e-06
1.18177e-05
1.67656e-05
4.49145e-06
4.81036e-05
1.88418e-06
0.000104118
-2.22255e-06
0.00013322
-1.87241e-05
0.000122439
-2.64342e-05
4.57607e-05
-8.11827e-06
-0.000102719
-0.000142356
2.39662e-05
-9.57695e-05
3.15057e-05
-8.3024e-05
3.34348e-05
-5.80551e-05
3.01649e-05
-2.42441e-05
2.38046e-05
3.54362e-07
1.63501e-05
1.36151e-05
5.9996e-06
2.45566e-05
-8.40742e-06
3.23146e-05
-2.02033e-05
3.4555e-06
-1.72817e-05
-1.92067e-05
-2.39803e-06
-1.69285e-05
-2.64534e-06
1.70129e-05
-4.3081e-06
4.97663e-05
-6.17131e-07
0.000100427
5.10985e-06
0.000127493
7.03207e-07
0.000126846
-6.38335e-06
5.28476e-05
-5.2599e-07
-0.000108577
-0.000142882
2.19802e-05
-0.00011775
3.10316e-05
-9.20754e-05
3.43896e-05
-6.1413e-05
3.09362e-05
-2.07907e-05
2.27286e-05
8.56199e-06
1.48746e-05
2.14691e-05
6.06772e-06
3.33635e-05
-6.20752e-06
4.45898e-05
-2.04446e-05
1.76926e-05
-2.16877e-05
-1.79636e-05
-1.41904e-05
-2.44258e-05
-1.58104e-05
1.86329e-05
-1.34891e-05
4.74451e-05
-5.68664e-06
9.26243e-05
4.85872e-06
0.000116948
7.24855e-06
0.000124457
1.36777e-05
4.6419e-05
6.91229e-06
-0.000101811
-0.00013597
-4.79277e-06
5.72095e-06
-9.77097e-06
6.74418e-06
-1.48512e-05
8.12359e-06
-1.98702e-05
1.01703e-05
-2.46601e-05
1.33178e-05
-2.87595e-05
1.83532e-05
-3.07989e-05
2.6285e-05
-2.90686e-05
3.77158e-05
-2.75071e-05
4.98767e-05
-4.60114e-05
5.20469e-05
-6.7077e-05
3.03305e-05
-6.96939e-05
-1.6604e-06
-5.9987e-05
-2.49206e-05
-4.66419e-05
-3.45023e-05
-3.57236e-05
-3.25296e-05
-2.77246e-05
-2.84125e-05
-2.16569e-05
-2.51572e-05
-1.72792e-05
-2.15224e-05
-1.44812e-05
-1.7819e-05
-1.26235e-05
-1.56614e-05
-1.14053e-05
-1.4666e-05
-1.08716e-05
-1.47213e-05
-2.0488e-05
-6.62392e-06
-4.5383e-06
1.02593e-05
-9.32849e-06
1.15344e-05
-1.39208e-05
1.27159e-05
-1.79311e-05
1.41806e-05
-2.10626e-05
1.64493e-05
-2.2847e-05
2.01377e-05
-2.20518e-05
2.54898e-05
-1.65907e-05
3.22547e-05
-5.40703e-06
3.8693e-05
6.72524e-06
3.99146e-05
1.055e-05
2.65058e-05
6.61248e-06
2.27709e-06
2.46777e-06
-2.07759e-05
6.92055e-07
-3.27266e-05
3.29636e-06
-3.51339e-05
7.66958e-06
-3.27857e-05
1.2153e-05
-2.96407e-05
1.59502e-05
-2.53196e-05
1.702e-05
-1.88888e-05
1.36117e-05
-1.22532e-05
7.88721e-06
-8.94159e-06
1.64288e-06
-8.47693e-06
-1.71434e-05
-1.7017e-06
-3.44967e-06
1.37089e-05
-8.01486e-06
1.60996e-05
-1.25354e-05
1.72364e-05
-1.6148e-05
1.77933e-05
-1.8374e-05
1.86752e-05
-1.91459e-05
2.09096e-05
-1.77528e-05
2.40967e-05
-1.29184e-05
2.74203e-05
-2.83297e-06
2.86076e-05
1.10651e-05
2.60166e-05
2.20095e-05
1.55614e-05
2.71947e-05
-2.90817e-06
2.75035e-05
-2.10846e-05
2.74893e-05
-3.27124e-05
2.94806e-05
-3.71252e-05
3.36023e-05
-3.69074e-05
3.7673e-05
-3.37114e-05
3.89878e-05
-2.66344e-05
3.73268e-05
-1.72278e-05
3.00994e-05
-5.02572e-06
7.02956e-06
1.41282e-05
-3.2645e-05
3.11976e-05
3.55367e-05
-8.53251e-05
-2.3526e-06
1.60615e-05
-7.53257e-06
2.12795e-05
-1.2688e-05
2.23919e-05
-1.62599e-05
2.13651e-05
-1.80409e-05
2.04562e-05
-1.9456e-05
2.23247e-05
-1.99378e-05
2.45785e-05
-1.85546e-05
2.60372e-05
-1.21696e-05
2.22226e-05
-2.28656e-06
1.61335e-05
7.17722e-06
6.09761e-06
1.31782e-05
-8.90912e-06
1.70439e-05
-2.49503e-05
2.17501e-05
-3.74187e-05
2.79941e-05
-4.33692e-05
3.51008e-05
-4.4014e-05
3.93763e-05
-3.7987e-05
2.894e-05
-1.61981e-05
-2.37981e-05
3.55103e-05
-0.000110019
8.11947e-05
-0.000185336
8.94461e-05
-0.000237297
8.31585e-05
6.3425e-05
-0.000265186
-1.35265e-06
1.74142e-05
-9.49346e-06
2.94203e-05
-1.97149e-05
3.26133e-05
-2.8497e-05
3.01473e-05
-3.40593e-05
2.60185e-05
-3.54875e-05
2.37529e-05
-3.46739e-05
2.37648e-05
-3.23168e-05
2.36801e-05
-2.67658e-05
1.66716e-05
-1.81748e-05
7.54257e-06
-9.09583e-06
-2.98135e-06
-2.03554e-06
-1.59694e-05
5.10839e-06
-3.20943e-05
1.2396e-05
-4.47063e-05
2.01445e-05
-5.11175e-05
3.0459e-05
-5.43283e-05
3.92432e-05
-4.67711e-05
-2.45768e-05
4.76219e-05
-0.000153468
0.000164401
-0.000226419
0.000154146
-0.000263349
0.000126376
-0.000283221
0.00010303
7.47657e-05
-0.000294561
-4.8497e-06
2.22639e-05
-1.34802e-05
3.80509e-05
-2.82124e-05
4.73454e-05
-4.50346e-05
4.69694e-05
-5.7706e-05
3.86899e-05
-6.0219e-05
2.62659e-05
-5.94131e-05
2.29589e-05
-5.52572e-05
1.95242e-05
-4.9873e-05
1.12874e-05
-4.29249e-05
5.94511e-07
-3.2435e-05
-1.34711e-05
-1.5663e-05
-3.27413e-05
5.19627e-06
-5.29532e-05
4.49109e-06
-4.40005e-05
-4.80355e-05
1.40996e-06
-0.000131509
2.91456e-05
-0.000245374
6.70939e-05
-0.000349458
0.000151705
-0.000323456
0.0001384
-0.000287922
0.000118612
-0.000278334
0.000116788
-0.000280822
0.000105518
8.82083e-05
-0.000294264
-9.6368e-06
3.19007e-05
-2.40596e-05
5.24737e-05
-3.79914e-05
6.12773e-05
-5.17761e-05
6.0754e-05
-6.04535e-05
4.73673e-05
-5.92306e-05
2.50431e-05
-5.97705e-05
2.34989e-05
-5.4182e-05
1.39357e-05
-3.23664e-05
-1.0528e-05
-2.65902e-05
-5.18134e-06
-4.36995e-05
3.63904e-06
-6.46545e-05
-1.17855e-05
-9.32584e-05
-2.43484e-05
-0.000121813
-1.54453e-05
-0.00014162
2.12179e-05
-0.000173956
6.14818e-05
-0.000233495
0.000126633
-0.000277289
0.000195498
-0.00028502
0.000146131
-0.000279418
0.00011301
-0.000273298
0.000110668
-0.000271214
0.000103434
0.000106474
-0.00028948
-3.20673e-05
6.3968e-05
-4.16507e-05
6.20571e-05
-5.0874e-05
7.05006e-05
-4.89667e-05
5.88467e-05
-2.4444e-05
2.28448e-05
-4.62516e-05
4.68508e-05
-5.72022e-05
3.44497e-05
-6.21746e-05
1.89083e-05
-6.42565e-05
-8.4457e-06
-6.28316e-05
-6.60576e-06
-5.99285e-05
7.36656e-07
-6.76556e-05
-4.05758e-06
-8.83447e-05
-3.65857e-06
-0.000112735
8.94591e-06
-0.000127809
3.62917e-05
-0.000144183
7.78563e-05
-0.000164388
0.000146836
-0.000198042
0.000229153
-0.000264313
0.000212403
-0.000270324
0.000119021
-0.000267338
0.000107681
-0.000243095
7.9191e-05
0.000114697
-0.000251319
-3.12768e-05
9.52447e-05
-3.3549e-05
6.43293e-05
-4.7303e-05
8.42546e-05
-5.70819e-05
6.86257e-05
-7.21577e-05
3.79206e-05
-6.60835e-05
4.07768e-05
-5.68679e-05
2.52342e-05
-4.77524e-05
9.79311e-06
-5.10452e-05
-5.15255e-06
-5.11595e-05
-6.49106e-06
-4.89322e-05
-1.49011e-06
-5.56213e-05
2.63201e-06
-6.84331e-05
9.1538e-06
-8.30269e-05
2.35401e-05
-9.42611e-05
4.75263e-05
-9.91712e-05
8.27668e-05
-8.75104e-05
0.000135176
-6.08734e-05
0.000202515
-6.66954e-05
0.000218225
-0.000123032
0.000175359
-0.000158263
0.000142914
-0.000199961
0.000120888
0.000120124
-0.000205388
-2.08643e-05
0.000116109
-5.08708e-05
9.43357e-05
-5.95511e-05
9.29349e-05
-6.47851e-05
7.38597e-05
-7.36236e-05
4.67593e-05
-6.41931e-05
3.13464e-05
-5.13077e-05
1.2349e-05
-4.1798e-05
2.83644e-07
-4.01687e-05
-6.78158e-06
-4.07962e-05
-5.8632e-06
-4.1695e-05
-5.90813e-07
-4.58351e-05
6.77255e-06
-5.30594e-05
1.63785e-05
-6.05099e-05
3.0991e-05
-6.50695e-05
5.20863e-05
-6.28014e-05
8.04992e-05
-4.51372e-05
0.000117512
-5.11264e-06
0.000162491
1.19829e-05
0.000201129
-4.17326e-06
0.000191515
-3.47789e-05
0.000173519
-7.33402e-05
0.000159449
0.000151801
-0.000105017
-3.4682e-05
0.000150791
-5.78518e-05
0.000117505
-6.04118e-05
9.54949e-05
-5.94192e-05
7.28671e-05
-5.76929e-05
4.50331e-05
-4.70307e-05
2.06844e-05
-3.68477e-05
2.16616e-06
-3.04379e-05
-6.12593e-06
-2.88263e-05
-8.39292e-06
-2.96461e-05
-5.04312e-06
-3.18294e-05
1.59285e-06
-3.54704e-05
1.04139e-05
-3.97982e-05
2.07066e-05
-4.30987e-05
3.42919e-05
-4.33592e-05
5.23472e-05
-3.82116e-05
7.5352e-05
-2.37467e-05
0.000103048
4.19672e-06
0.000134548
3.60824e-05
0.000169244
4.77706e-05
0.000179826
4.06438e-05
0.000180646
2.05364e-05
0.000179556
0.000173079
-7.42647e-07
-3.55007e-05
0.000186291
-4.84979e-05
0.000130502
-4.70828e-05
9.40797e-05
-4.09448e-05
6.67292e-05
-3.25046e-05
3.6593e-05
-2.36069e-05
1.17868e-05
-1.85878e-05
-2.85274e-06
-1.65068e-05
-8.20673e-06
-1.70653e-05
-7.83425e-06
-1.91482e-05
-2.9599e-06
-2.20405e-05
4.4854e-06
-2.508e-05
1.34537e-05
-2.77306e-05
2.33575e-05
-2.88106e-05
3.53721e-05
-2.69764e-05
5.05134e-05
-2.09888e-05
6.93648e-05
-9.26565e-06
9.13252e-05
1.03752e-05
0.000114908
3.89857e-05
0.000140634
6.03277e-05
0.000158484
7.00088e-05
0.000170965
7.07434e-05
0.000178822
0.000177699
6.61231e-05
-2.0249e-05
0.00020654
-2.6704e-05
0.000136957
-2.37334e-05
9.1109e-05
-1.46067e-05
5.76025e-05
-6.19117e-06
2.81775e-05
-1.76734e-06
7.3631e-06
-1.30176e-06
-3.31818e-06
-2.83877e-06
-6.66955e-06
-5.93445e-06
-4.73837e-06
-9.6006e-06
7.06492e-07
-1.31747e-05
8.05971e-06
-1.59936e-05
1.62729e-05
-1.76564e-05
2.50207e-05
-1.74911e-05
3.52071e-05
-1.47975e-05
4.78201e-05
-8.79855e-06
6.33662e-05
1.16168e-06
8.13653e-05
1.5495e-05
0.000100575
3.57987e-05
0.00012033
5.72495e-05
0.000137033
7.59961e-05
0.000152218
8.94976e-05
0.00016532
0.000170189
9.70078e-05
-3.89879e-06
0.000210439
-5.54638e-07
0.000133613
4.04806e-06
8.65063e-05
1.11544e-05
5.04962e-05
1.53983e-05
2.39336e-05
1.53579e-05
7.40357e-06
1.26737e-05
-6.33837e-07
8.33132e-06
-2.32703e-06
3.18937e-06
4.03751e-07
-1.78489e-06
5.68096e-06
-5.79958e-06
1.20746e-05
-8.44697e-06
1.89205e-05
-9.58001e-06
2.61539e-05
-8.89815e-06
3.45255e-05
-6.01154e-06
4.49338e-05
-4.34594e-07
5.77895e-05
8.30742e-06
7.26235e-05
2.00609e-05
8.88214e-05
3.53189e-05
0.000105072
5.27105e-05
0.000119642
7.1638e-05
0.000133291
9.03397e-05
0.000146619
0.000154567
0.000105961
1.18073e-05
0.000198632
1.99448e-05
0.000125475
2.68167e-05
7.96344e-05
3.09211e-05
4.63917e-05
3.1135e-05
2.37198e-05
2.78676e-05
1.0671e-05
2.21903e-05
5.04358e-06
1.55645e-05
4.2989e-06
9.2234e-06
6.74499e-06
3.91141e-06
1.09931e-05
-3.22292e-09
1.59894e-05
-2.44576e-06
2.13633e-05
-3.35853e-06
2.70669e-05
-2.66537e-06
3.38325e-05
-7.37766e-08
4.23424e-05
4.84079e-06
5.28751e-05
1.22261e-05
6.52383e-05
2.24536e-05
7.85941e-05
3.52739e-05
9.22517e-05
4.99133e-05
0.000105002
6.6561e-05
0.000116643
8.51127e-05
0.000128067
0.00013611
0.000103569
2.30714e-05
0.00017556
3.52355e-05
0.000113311
4.14653e-05
7.34046e-05
4.25852e-05
4.52719e-05
3.94752e-05
2.68298e-05
3.36278e-05
1.65185e-05
2.64985e-05
1.21729e-05
1.92822e-05
1.15153e-05
1.2906e-05
1.31214e-05
7.88054e-06
1.60187e-05
4.28423e-06
1.95859e-05
2.1132e-06
2.35345e-05
1.19613e-06
2.79841e-05
1.665e-06
3.33638e-05
3.66601e-06
4.03416e-05
7.56816e-06
4.89731e-05
1.38604e-05
5.89461e-05
2.26469e-05
6.98076e-05
3.39083e-05
8.09903e-05
4.71105e-05
9.18002e-05
6.21395e-05
0.000101614
7.93862e-05
0.00011082
0.000117742
9.77536e-05
2.89372e-05
0.000146623
4.21487e-05
0.0001001
4.69915e-05
6.85618e-05
4.60167e-05
4.62468e-05
4.1197e-05
3.16496e-05
3.44362e-05
2.32794e-05
2.72709e-05
1.93383e-05
2.05962e-05
1.819e-05
1.49502e-05
1.87675e-05
1.05418e-05
2.04272e-05
7.34885e-06
2.2779e-05
5.28526e-06
2.55982e-05
4.33698e-06
2.89325e-05
4.46056e-06
3.32404e-05
5.87831e-06
3.89239e-05
8.92627e-06
4.59252e-05
1.40003e-05
5.38722e-05
2.13813e-05
6.24266e-05
3.11423e-05
7.12293e-05
4.30803e-05
7.98622e-05
5.69369e-05
8.77573e-05
7.29393e-05
9.48171e-05
0.000100352
9.03294e-05
2.86617e-05
0.000117961
4.09694e-05
8.7792e-05
4.47056e-05
6.48256e-05
4.30826e-05
4.78698e-05
3.83494e-05
3.63828e-05
3.2306e-05
2.93228e-05
2.6186e-05
2.54583e-05
2.06457e-05
2.37303e-05
1.59705e-05
2.34428e-05
1.22477e-05
2.41501e-05
9.4665e-06
2.55603e-05
7.57697e-06
2.74878e-05
6.57256e-06
2.9937e-05
6.44478e-06
3.33682e-05
7.41144e-06
3.79574e-05
9.77725e-06
4.35595e-05
1.38016e-05
4.98479e-05
1.97488e-05
5.64794e-05
2.78e-05
6.31782e-05
3.80044e-05
6.96578e-05
5.02202e-05
7.55414e-05
6.45167e-05
8.05208e-05
8.44205e-05
8.04477e-05
2.35711e-05
9.43901e-05
3.42343e-05
7.71288e-05
3.77119e-05
6.13481e-05
3.67318e-05
4.885e-05
3.32594e-05
3.98552e-05
2.87442e-05
3.38381e-05
2.41106e-05
3.0092e-05
1.98398e-05
2.80012e-05
1.61558e-05
2.71268e-05
1.31401e-05
2.71659e-05
1.08127e-05
2.78877e-05
9.16987e-06
2.91307e-05
8.20139e-06
3.09056e-05
7.9616e-06
3.36081e-05
8.67629e-06
3.72428e-05
1.05543e-05
4.16815e-05
1.37984e-05
4.66039e-05
1.8551e-05
5.17268e-05
2.49824e-05
5.67468e-05
3.32181e-05
6.14222e-05
4.32872e-05
6.54723e-05
5.52582e-05
6.85495e-05
7.07511e-05
6.89274e-05
1.68223e-05
7.75677e-05
2.57798e-05
6.81713e-05
2.94635e-05
5.76644e-05
2.96205e-05
4.8693e-05
2.77107e-05
4.1765e-05
2.48153e-05
3.67335e-05
2.16279e-05
3.32793e-05
1.85485e-05
3.10807e-05
1.57834e-05
2.98919e-05
1.34484e-05
2.9501e-05
1.15972e-05
2.97389e-05
1.0251e-05
3.04769e-05
9.41596e-06
3.17407e-05
9.21585e-06
3.38083e-05
9.84975e-06
3.66089e-05
1.14577e-05
4.00736e-05
1.41558e-05
4.39058e-05
1.80534e-05
4.78292e-05
2.3221e-05
5.15792e-05
2.9747e-05
5.48962e-05
3.76885e-05
5.75307e-05
4.70944e-05
5.91438e-05
5.987e-05
5.79751e-05
1.11534e-05
6.64145e-05
1.84608e-05
6.08639e-05
2.22118e-05
5.39134e-05
2.32958e-05
4.76091e-05
2.26736e-05
4.23872e-05
2.11071e-05
3.83001e-05
1.91204e-05
3.52661e-05
1.70417e-05
3.31594e-05
1.50818e-05
3.18519e-05
1.33693e-05
3.12135e-05
1.19817e-05
3.11265e-05
1.09606e-05
3.1498e-05
1.03396e-05
3.23617e-05
1.02765e-05
3.38715e-05
1.09172e-05
3.59682e-05
1.23857e-05
3.8605e-05
1.47579e-05
4.15336e-05
1.80773e-05
4.45099e-05
2.23741e-05
4.72823e-05
2.76642e-05
4.96063e-05
3.39496e-05
5.12454e-05
4.12003e-05
5.18929e-05
5.15931e-05
4.9477e-05
7.4037e-06
5.90107e-05
1.31878e-05
5.50799e-05
1.66854e-05
5.04159e-05
1.82616e-05
4.60328e-05
1.84901e-05
4.21587e-05
1.78732e-05
3.8917e-05
1.67909e-05
3.63484e-05
1.55101e-05
3.44402e-05
1.42225e-05
3.31395e-05
1.30538e-05
3.23822e-05
1.20958e-05
3.20846e-05
1.13982e-05
3.21956e-05
1.10357e-05
3.27242e-05
1.11532e-05
3.37539e-05
1.186e-05
3.52615e-05
1.32579e-05
3.72071e-05
1.54072e-05
3.93842e-05
1.83352e-05
4.15819e-05
2.20362e-05
4.35814e-05
2.6484e-05
4.51585e-05
3.16315e-05
4.60978e-05
3.73847e-05
4.61398e-05
4.52486e-05
4.37287e-05
5.1613e-06
5.38496e-05
9.66822e-06
5.0573e-05
1.2726e-05
4.73581e-05
1.44536e-05
4.43053e-05
1.51652e-05
4.14471e-05
1.51723e-05
3.89099e-05
1.47344e-05
3.67863e-05
1.40594e-05
3.51151e-05
1.33058e-05
3.38931e-05
1.25965e-05
3.30915e-05
1.20191e-05
3.26619e-05
1.16352e-05
3.25795e-05
1.1528e-05
3.28313e-05
1.18176e-05
3.34643e-05
1.26005e-05
3.44785e-05
1.39649e-05
3.58427e-05
1.5958e-05
3.73912e-05
1.8593e-05
3.89469e-05
2.18609e-05
4.03134e-05
2.5713e-05
4.13065e-05
3.00808e-05
4.17301e-05
3.48405e-05
4.13799e-05
4.01698e-05
3.99191e-05
3.81355e-06
5.0036e-05
7.3363e-06
4.70503e-05
9.9293e-06
4.47651e-05
1.16215e-05
4.26131e-05
1.25732e-05
4.04955e-05
1.29652e-05
3.85179e-05
1.29703e-05
3.67812e-05
1.27409e-05
3.53445e-05
1.24052e-05
3.42288e-05
1.20691e-05
3.34276e-05
1.18092e-05
3.29217e-05
1.17045e-05
3.26841e-05
1.18241e-05
3.27117e-05
1.22705e-05
3.30178e-05
1.31208e-05
3.36282e-05
1.44602e-05
3.45033e-05
1.6324e-05
3.55272e-05
1.87253e-05
3.65455e-05
2.16419e-05
3.73967e-05
2.50313e-05
3.79171e-05
2.88146e-05
3.79468e-05
3.28787e-05
3.7316e-05
3.59261e-05
3.7122e-05
2.95446e-06
4.70817e-05
5.75094e-06
4.42539e-05
7.93574e-06
4.25804e-05
9.51446e-06
4.10344e-05
1.05624e-05
3.94476e-05
1.11805e-05
3.78998e-05
1.14802e-05
3.64814e-05
1.15702e-05
3.52545e-05
1.15497e-05
3.42492e-05
1.15043e-05
3.34729e-05
1.15081e-05
3.29179e-05
1.16309e-05
3.25612e-05
1.19389e-05
3.24036e-05
1.25069e-05
3.24498e-05
1.34116e-05
3.27234e-05
1.47214e-05
3.31934e-05
1.64723e-05
3.37762e-05
1.86651e-05
3.43527e-05
2.12852e-05
3.47766e-05
2.42845e-05
3.49178e-05
2.75945e-05
3.46369e-05
3.11159e-05
3.37944e-05
3.22886e-05
3.47532e-05
2.37e-06
4.47116e-05
4.63584e-06
4.19881e-05
6.48904e-06
4.07272e-05
7.93214e-06
3.95913e-05
8.99739e-06
3.83824e-05
9.73888e-06
3.71583e-05
1.02272e-05
3.59931e-05
1.05385e-05
3.49431e-05
1.07482e-05
3.40395e-05
1.09257e-05
3.32954e-05
1.11368e-05
3.27066e-05
1.14366e-05
3.22614e-05
1.18849e-05
3.19553e-05
1.25427e-05
3.17919e-05
1.34784e-05
3.17877e-05
1.47501e-05
3.19216e-05
1.63886e-05
3.21377e-05
1.8397e-05
3.23443e-05
2.07495e-05
3.24241e-05
2.34083e-05
3.2259e-05
2.63133e-05
3.17318e-05
2.93841e-05
3.07238e-05
2.91375e-05
3.2535e-05
1.9521e-06
4.27597e-05
3.82684e-06
4.01134e-05
5.41648e-06
3.91376e-05
6.72628e-06
3.82815e-05
7.76686e-06
3.73418e-05
8.56637e-06
3.63587e-05
9.16877e-06
3.53906e-05
9.62811e-06
3.44837e-05
1.00006e-05
3.3667e-05
1.03418e-05
3.2954e-05
1.07048e-05
3.23436e-05
1.11362e-05
3.18299e-05
1.16848e-05
3.14066e-05
1.24001e-05
3.10766e-05
1.33443e-05
3.08433e-05
1.45645e-05
3.07014e-05
1.60871e-05
3.0615e-05
1.79174e-05
3.0514e-05
2.0032e-05
3.03095e-05
2.23927e-05
2.98983e-05
2.4946e-05
2.91786e-05
2.76264e-05
2.80433e-05
2.63987e-05
3.03651e-05
1.64201e-06
4.11177e-05
3.22229e-06
3.85331e-05
4.60253e-06
3.77574e-05
5.78932e-06
3.70947e-05
6.78361e-06
3.63475e-05
7.59948e-06
3.55428e-05
8.26478e-06
3.47253e-05
8.81744e-06
3.3931e-05
9.29933e-06
3.3185e-05
9.75392e-06
3.24994e-05
1.02227e-05
3.18747e-05
1.07449e-05
3.13076e-05
1.13573e-05
3.07941e-05
1.21031e-05
3.03306e-05
1.30306e-05
2.99158e-05
1.41833e-05
2.95486e-05
1.55899e-05
2.92083e-05
1.72512e-05
2.88526e-05
1.91478e-05
2.84129e-05
2.12428e-05
2.78033e-05
2.34892e-05
2.69322e-05
2.58311e-05
2.57016e-05
2.40179e-05
2.82117e-05
1.4052e-06
3.97126e-05
2.7578e-06
3.71806e-05
3.96911e-06
3.65461e-05
5.04423e-06
3.60196e-05
5.9814e-06
3.54103e-05
6.7871e-06
3.47371e-05
7.47947e-06
3.40329e-05
8.08453e-06
3.33259e-05
8.63417e-06
3.26353e-05
9.16137e-06
3.19721e-05
9.69757e-06
3.13384e-05
1.02744e-05
3.07307e-05
1.09228e-05
3.01456e-05
1.16753e-05
2.9578e-05
1.25703e-05
2.90207e-05
1.36458e-05
2.8473e-05
1.49281e-05
2.79259e-05
1.64254e-05
2.73553e-05
1.81208e-05
2.67175e-05
1.99793e-05
2.59449e-05
2.19559e-05
2.49557e-05
2.40018e-05
2.36556e-05
2.19488e-05
2.60708e-05
1.21935e-06
3.84932e-05
2.3911e-06
3.60089e-05
3.46155e-06
3.54757e-05
4.4354e-06
3.50457e-05
5.3099e-06
3.45358e-05
6.08796e-06
3.3959e-05
6.78135e-06
3.33394e-05
7.40893e-06
3.26982e-05
7.99331e-06
3.20508e-05
8.55998e-06
3.14053e-05
9.13305e-06
3.07652e-05
9.73659e-06
3.0127e-05
1.03957e-05
2.94864e-05
1.11364e-05
2.88372e-05
1.19863e-05
2.81707e-05
1.29776e-05
2.74817e-05
1.41353e-05
2.67681e-05
1.54718e-05
2.60187e-05
1.69765e-05
2.52128e-05
1.86194e-05
2.4302e-05
2.03578e-05
2.32174e-05
2.21447e-05
2.18689e-05
2.01535e-05
2.39399e-05
1.07067e-06
3.74227e-05
2.09307e-06
3.49865e-05
3.04236e-06
3.45264e-05
3.92237e-06
3.41657e-05
4.73095e-06
3.37272e-05
5.46928e-06
3.32206e-05
6.14509e-06
3.26636e-05
6.77177e-06
3.20715e-05
7.36603e-06
3.14565e-05
7.94633e-06
3.08249e-05
8.53191e-06
3.01796e-05
9.14017e-06
2.95187e-05
9.79126e-06
2.88352e-05
1.05044e-05
2.81239e-05
1.13008e-05
2.73742e-05
1.22046e-05
2.65778e-05
1.32396e-05
2.57331e-05
1.44186e-05
2.48396e-05
1.57415e-05
2.38899e-05
1.71842e-05
2.28593e-05
1.87078e-05
2.1694e-05
2.02651e-05
2.03116e-05
1.85998e-05
2.18188e-05
9.49081e-07
3.64736e-05
1.84327e-06
3.40924e-05
2.68451e-06
3.36852e-05
3.47566e-06
3.33746e-05
4.21573e-06
3.29871e-05
4.905e-06
3.25313e-05
5.54913e-06
3.20194e-05
6.15741e-06
3.14632e-05
6.74216e-06
3.08717e-05
7.31665e-06
3.02504e-05
7.89535e-06
2.96008e-05
8.49203e-06
2.89219e-05
9.12052e-06
2.82067e-05
9.79489e-06
2.74494e-05
1.05317e-05
2.66373e-05
1.13466e-05
2.57628e-05
1.2259e-05
2.48205e-05
1.32869e-05
2.38118e-05
1.44352e-05
2.27416e-05
1.56905e-05
2.1604e-05
1.70159e-05
2.03687e-05
1.83667e-05
1.8961e-05
1.72639e-05
1.97025e-05
8.493e-07
3.56244e-05
1.6284e-06
3.33133e-05
2.36899e-06
3.29446e-05
3.07364e-06
3.26699e-05
3.74234e-06
3.23184e-05
4.37516e-06
3.18985e-05
4.97619e-06
3.14183e-05
5.55215e-06
3.08872e-05
6.11173e-06
3.03121e-05
6.66496e-06
2.96971e-05
7.2222e-06
2.90434e-05
7.79385e-06
2.83502e-05
8.38903e-06
2.76114e-05
9.01925e-06
2.68191e-05
9.69175e-06
2.59647e-05
1.04199e-05
2.50346e-05
1.12175e-05
2.40229e-05
1.20994e-05
2.29298e-05
1.30787e-05
2.17624e-05
1.4152e-05
2.05307e-05
1.52924e-05
1.92284e-05
1.64529e-05
1.78005e-05
1.61269e-05
1.75899e-05
7.64882e-07
3.48595e-05
1.43804e-06
3.26402e-05
2.08225e-06
3.23004e-05
2.70076e-06
3.20514e-05
3.29509e-06
3.17241e-05
3.86498e-06
3.13286e-05
4.4136e-06
3.08697e-05
4.94575e-06
3.0355e-05
5.46803e-06
2.97897e-05
5.98728e-06
2.91778e-05
6.51101e-06
2.85197e-05
7.04706e-06
2.78141e-05
7.60095e-06
2.70574e-05
8.17963e-06
2.62404e-05
8.78902e-06
2.53553e-05
9.43376e-06
2.43898e-05
1.01228e-05
2.33339e-05
1.08697e-05
2.21827e-05
1.16883e-05
2.09438e-05
1.25851e-05
1.96341e-05
1.35456e-05
1.8268e-05
1.4528e-05
1.68183e-05
1.51753e-05
1.54795e-05
6.93357e-07
3.41663e-05
1.26543e-06
3.20682e-05
1.81481e-06
3.17511e-05
2.34718e-06
3.15191e-05
2.86402e-06
3.12072e-05
3.36515e-06
3.08275e-05
3.85316e-06
3.03817e-05
4.33147e-06
2.98766e-05
4.8054e-06
2.93158e-05
5.27971e-06
2.87034e-05
5.7601e-06
2.80392e-05
6.25143e-06
2.73227e-05
6.75837e-06
2.65504e-05
7.28348e-06
2.57152e-05
7.82826e-06
2.48104e-05
8.39426e-06
2.38238e-05
8.98477e-06
2.27434e-05
9.60759e-06
2.15599e-05
1.02759e-05
2.02755e-05
1.10024e-05
1.89077e-05
1.17865e-05
1.74839e-05
1.2595e-05
1.60099e-05
1.43983e-05
1.33721e-05
6.3175e-07
3.35345e-05
1.1062e-06
3.15938e-05
1.56175e-06
3.12956e-05
2.0074e-06
3.10735e-05
2.44439e-06
3.07703e-05
2.8721e-06
3.03998e-05
3.29297e-06
2.99608e-05
3.70955e-06
2.946e-05
4.12513e-06
2.89002e-05
4.54443e-06
2.82841e-05
4.97141e-06
2.76122e-05
5.40956e-06
2.68845e-05
5.86146e-06
2.60985e-05
6.32812e-06
2.52485e-05
6.80909e-06
2.43294e-05
7.30249e-06
2.33303e-05
7.80596e-06
2.22399e-05
8.31865e-06
2.10472e-05
8.84986e-06
1.97443e-05
9.41513e-06
1.83426e-05
1.0025e-05
1.68741e-05
1.06616e-05
1.53736e-05
1.37914e-05
1.12685e-05
5.77305e-07
3.29574e-05
9.57367e-07
3.12138e-05
1.32058e-06
3.09325e-05
1.68047e-06
3.07137e-05
2.03599e-06
3.04148e-05
2.38767e-06
3.00481e-05
2.73643e-06
2.96121e-05
3.08452e-06
2.9112e-05
3.43461e-06
2.85501e-05
3.79005e-06
2.79286e-05
4.1537e-06
2.72485e-05
4.5291e-06
2.65091e-05
4.91861e-06
2.5709e-05
5.32052e-06
2.48466e-05
5.73484e-06
2.39151e-05
6.1572e-06
2.2908e-05
6.58055e-06
2.18165e-05
6.99964e-06
2.06282e-05
7.41336e-06
1.93307e-05
7.83149e-06
1.79245e-05
8.27234e-06
1.64334e-05
8.73447e-06
1.49114e-05
1.33534e-05
9.17256e-06
5.26127e-07
3.24312e-05
8.1633e-07
3.09237e-05
1.0903e-06
3.06585e-05
1.3669e-06
3.04371e-05
1.64274e-06
3.0139e-05
1.91804e-06
2.97728e-05
2.19302e-06
2.93371e-05
2.46902e-06
2.8836e-05
2.74796e-06
2.82712e-05
3.03257e-06
2.7644e-05
3.32483e-06
2.69563e-05
3.62832e-06
2.62056e-05
3.94401e-06
2.53933e-05