/*--------------------------------*- C++ -*----------------------------------*\
| =========                 |                                                 |
| \\      /  F ield         | OpenFOAM: The Open Source CFD Toolbox           |
|  \\    /   O peration     | Version:  2312                                  |
|   \\  /    A nd           | Website:  www.openfoam.com                      |
|    \\/     M anipulation  |                                                 |
\*---------------------------------------------------------------------------*/
FoamFile
{
    version     2.0;
    format      ascii;
    arch        "LSB;label=32;scalar=64";
    class       volScalarField;
    location    "1.9";
    object      alphas;
}
// * * * * * * * * * * * * * * * * * * * * * * * * * * * * * * * * * * * * * //

dimensions      [0 0 0 0 0 0 0];

internalField   nonuniform List<scalar> 
2268
(
2
2
2
2
2
2
2
2
2
2
2
2
2
2
2
2
2
2
2
2
2
1.99995
1.99994
2
2
2
2
2
2
2
2
2
2
2
2
2
2
2
2
2
2
2
2
2
1.99998
1.99996
2
2
2
2
2
2
2
2
2
2
2
2
2
2
2
2
2
2
2
2
2
2
2
2
2
2
2
2
2
2
2
2
2
2
2
2
2
2
2
2
2
2
2
2
2
2.00002
1.99996
1.99981
2
2
1.99999
2
2
2.00001
2
2
2
2
2
2
2
2
2
1.99999
1.99458
1.96122
1.91513
1.86743
1.80344
1.44795
1.43206
1.56312
1.75283
1.89539
1.98682
2.00014
2.00014
2
1.99979
1.9999
1.99997
1.99999
1.9997
1.9665
1.8522
1.64715
1.35743
1.00644
0.740372
0.577798
0.464339
0.381756
1.01932
0.505242
0.240355
0.364946
0.585293
0.83639
1.0563
1.18696
1.30548
1.44415
1.52061
1.52746
1.43397
1.15088
0.750438
0.404863
0.166965
0.0241978
0.00476893
0.00618863
0.00560054
0.0112437
0.0145414
0.937182
0.288627
0.0060847
0.00354834
0.0034385
0.00362804
0.0135614
0.0307363
0.0471166
0.066845
0.109002
0.117788
0.0708022
0.00137864
0.00165552
0.00216993
0.00239546
0.00241655
0.00322443
0.00945722
0.0112775
0.0119378
0.0155674
1.76755
1.86001
1.87744
1.87781
1.87845
1.89006
1.90674
1.91531
1.92188
1.91963
1.91696
1.91877
1.92979
1.93205
1.93134
1.93222
1.93222
1.93381
1.939
1.76726
1.86476
1.77307
1.77126
1.70742
1.68181
1.62295
1.49089
1.42102
1.49878
1.67038
1.59236
1.57446
1.62093
1.69309
1.80049
1.88136
1.94511
1.94525
1.6525
1.52209
1.44518
1.43861
1.42529
1.32195
1.34229
1.24865
1.01253
1.03995
1.07898
1.32238
1.42865
1.50019
1.54882
1.45108
1.37788
1.44943
1.72231
1.43361
1.00758
0.686202
0.769418
0.851171
0.794091
0.82981
1.14204
1.30691
1.11174
1.13325
1.18162
1.29991
1.48237
1.38983
1.22294
0.979268
0.724714
1.09316
0.578422
0.310199
0.309628
0.324814
0.364874
0.473759
0.461583
0.870001
1.08513
1.15075
1.27837
1.1794
1.31664
1.21595
0.606504
0.451517
0.143846
0.10688
0.48075
0.424982
0.497789
0.861759
0.997987
0.741938
0.474818
0.386607
0.819372
1.08245
1.09221
0.950428
0.947074
1.11212
0.974391
0.284822
0.111877
0.105837
0.105285
0.306853
0.443522
0.778355
0.990032
0.982062
0.626295
0.435155
0.724121
1.05583
1.05355
0.794347
0.214853
0.149571
0.454326
0.553912
0.184529
0.107594
0.108336
0.108034
0.101571
0.83053
0.905957
0.750711
0.0714455
0.134413
0.567109
1.06136
1.06485
0.690313
0.159911
3.27906e-05
5.30302e-05
0.0399377
0.234955
0.242486
0.158509
0.276828
0.140841
0.106067
1.13476
0.812966
0.148791
0.0140226
0.0300461
0.02928
0.0203401
0.00227592
0.00216782
0.002063
0.00254954
0.00231543
0.0019872
0.00185063
0.00194898
0.00452401
0.0225799
0.0286358
0.0303308
0.0202298
0.0401181
0.0450763
0.0247916
1.27067
1.1129
0.918623
0.633923
0.602338
0.539896
0.439755
0.249939
0.223039
0.178054
0.166467
0.147446
0.139747
0.15373
0.211594
0.307189
0.432817
0.543311
0.642407
0.645043
0.577992
0.404071
0.322501
1.18212
1.04494
1.01771
1.00594
1.01942
1.04111
1.00705
1.00812
1.14756
1.27802
1.08133
0.980785
0.985703
0.900351
0.943643
1.00011
1.05604
1.05616
1.05308
1.04026
1.01228
0.98523
0.923284
1.04723
1.01962
1.00948
1.0058
1.0105
1.04627
1.04673
1.04469
1.02586
1.01241
1.01989
1.11196
1.14594
1.08571
1.08481
1.08487
1.13276
1.19452
1.19725
1.14374
1.0545
1.04603
1.02748
1.04736
1.37424
1.01004
1.01541
1.15781
1.02172
1.00091
0.999943
0.999933
1.00002
1.00009
1.00016
1.02389
1.18366
1.46595
1.96008
2.39818
2.63453
2.64655
2.53208
2.25275
1.66892
1.14741
1.04752
1.37637
1.0736
1.26366
1.56076
1.24991
1.03958
1.05777
1.07711
1.10124
1.16725
1.38717
1.95246
2.66593
2.99292
2.99824
2.99905
2.99804
2.99719
2.99392
2.97378
2.85763
2.0505
1.35009
1.34809
1.36466
1.62363
1.59276
1.77573
2.08269
2.31357
2.42468
2.49837
2.60931
2.8506
2.9819
2.98946
2.99974
3
3
2.99999
2.99827
2.99265
2.99073
2.99204
2.7868
2.34024
2.20564
2.18011
2.26543
2.53009
2.75171
2.93465
2.9997
2.99992
2.99992
2.9994
2.99173
2.98834
2.99916
3
3
3
2.99998
2.99967
2.99931
2.99938
2.99706
2.63568
2.99987
2.99996
2.99998
2.99999
2.99999
2.99999
2.99999
3
3
2.99997
2.99987
2.99986
2.99949
3
3
2.99999
3
3
3
2.99904
2.92042
2.8128
1.57467
2.9999
2.99997
2.99999
2.99999
3
3
2.99999
3
3
2.99983
2.99945
2.99945
2.99993
3
3
2.99998
2.99994
3
3
2.99722
2.90521
2.02278
0.969744
3
2.99999
2.99999
2.99999
2.99999
2.99999
2.99999
3
3
2.99999
2.9999
2.99981
2.99994
3
3
3
2.99973
2.9993
2.99982
2.99914
2.98089
2.96911
2.28045
3
3
2.99999
2.99999
3
3
3
3
3
3
3
3
3
3
3
3
2.99979
2.99879
2.99879
2.99937
2.99949
2.99961
2.99977
3
3
3
3
3
3
3
3
3
3
3
3
3
3
3
3
2.99998
2.99922
2.99876
2.99877
2.99926
2.99967
2.99963
3
3
3
3
3
3
3
3
3
3
3
3
3
3
3
3
3
2.99996
2.99919
2.99879
2.9993
2.99914
2.99884
3
3
3
3
3
3
3
3
3
3
3
3
3
3
3
3
3
3
2.99998
2.99984
2.9999
2.99951
2.99884
3
3
3
3
3
3
3
3
3
3
3
3
3
3
3
3
3
3
3
3
3
2.99999
2.9999
3
3
3
3
3
3
3
3
3
3
3
3
3
3
3
3
3
3
3
3
3
3
3
3
3
3
3
3
3
3
3
3
3
3
3
3
3
3
3
3
3
3
3
3
3
3
3
3
3
3
3
3
3
3
3
3
3
3
3
3
3
3
3
3
3
3
3
3
3
3
3
3
3
3
3
3
3
3
3
3
3
3
3
3
3
3
3
3
3
3
3
3
3
3
3
3
3
3
3
3
3
3
3
3
3
3
3
3
3
3
3
3
3
3
3
3
3
3
3
3
3
3
3
3
3
3
3
3
3
3
3
3
3
3
3
3
3
3
3
3
3
3
3
3
3
3
3
3
3
3
3
3
3
3
3
3
3
3
3
3
3
3
3
3
3
3
3
3
3
3
3
3
3
3
3
3
3
3
3
3
3
3
3
3
3
3
3
3
3
3
3
3
3
3
3
3
3
3
3
3
3
3
3
3
3
3
3
3
3
3
3
3
3
3
3
3
3
3
3
3
3
3
3
3
3
3
3
3
3
3
3
3
3
3
3
3
3
3
3
3
3
3
3
3
3
3
3
3
3
3
3
3
3
3
3
3
3
3
3
3
3
3
3
3
3
3
3
3
3
3
3
3
3
3
3
3
3
3
3
3
3
3
3
3
3
3
3
3
3
3
3
3
3
3
3
3
3
3
3
3
3
3
3
3
3
3
3
3
3
3
3
3
3
3
3
3
3
3
3
3
3
3
3
3
3
3
3
3
3
3
3
3
3
3
3
3
3
3
3
3
3
3
3
3
3
3
3
2.99999
2.99999
2.99999
3
3
3
3
3
3
3
3
3
3
3
3
3
3
3
3
3
3
2.99997
3
2.99999
2.99999
2.99999
3
3
3
3
3
3
3
3
3
3
3
3
3
3
3
3
3
3
2.99994
2.99994
2.99997
2.99999
3
3
3
3
3
3
3
3
3
3
3
3
3
3
3
3
3
3
3
2.99994
2.99994
2.99997
3
3
3
3
3
3
3
3
3
3
3
3
3
3
3
3
3
3
3
3
2.99994
2.99997
2.99999
3
3
3
3
3
3
3
3
3
3
3
3
3
3
3
3
3
3
3
3
2.99994
3
3
3
3
3
3
3
3
3
3
3
3
3
3
3
3
3
3
3
3
3
3
2.99995
2.99998
3
3
3
3
3
3
3
3
3
3
3
3
3
3
3
3
3
3
3
3
3
3
2.99993
2.99994
2.99994
2.99994
2.99999
3
3
3
3
3
3
3
3
3
3
3
3
3
3
3
3
3
3
2.99996
2.99992
2.99992
2.99993
2.99999
3
3
3
3
3
3
3
3
3
3
3
3
3
3
3
3
3
3
3
2.99998
2.99998
2.99999
3
3
3
3
3
3
3
3
3
3
3
3
3
3
3
3
3
3
3
3
3
3
3
3
3
3
3
3
3
3
3
3
3
3
3
3
3
3
3
3
3
0.0422499
0.101059
0.192226
0.274848
0.299397
0.319809
0.317384
0.367187
0.897482
0.817946
0.794948
0.834242
1.02697
1.09305
1.09194
1.02697
1.0636
1.06796
1.04733
1.02441
1.21872
1.06293
1.056
1.03547
1.22461
1.04005
1.03552
1.02629
1.00942
0.96846
0.997141
1.00268
0.963029
0.962963
0.962856
0.975105
1.00486
1.00952
1.00329
1.00141
1.34887
1.39255
1.47747
1.44928
2.99909
2.99889
2.99877
2.99832
2.99924
2.99422
2.99254
2.99255
2.99929
2.999
2.99824
2.99791
2.99883
2.99898
2.99889
2.99832
2.99934
2.99867
2.99867
2.99898
3
2.99989
2.99927
2.99962
3
3
3
2.99998
3
3
3
3
3
3
3
3
3
3
3
3
3
3
3
3
3
3
3
3
3
3
3
3
3
3
3
3
3
3
3
3
3
3
3
3
3
3
3
3
3
3
3
3
3
3
3
3
3
3
3
3
3
3
3
3
3
3
3
3
3
3
3
3
3
3
3
3
3
3
3
3
3
3
3
3
3
3
3
3
3
3
3
3
3
3
3
3
3
3
3
3
3
3
3
3
0.756489
0.875927
0.222792
0.0055992
0.160592
0.700996
0.885171
0.522724
0.0223228
8.30397e-05
0.000430083
5.321e-05
0.0470765
0.358532
0.570622
0.606811
0.579167
0.399641
0.10774
0.640393
0.587581
0.00352303
0.00340953
0.0173753
0.162492
0.261391
0.151028
0.00031336
7.34465e-05
8.28947e-05
6.29291e-05
0.000180593
0.237948
0.890642
0.780658
0.504357
0.41726
0.32595
0.878489
0.504378
0.00343588
0.0034447
0.00319112
0.00244147
0.00240089
0.00230009
0.000794342
0.000818676
0.00013405
0.00564143
0.161192
0.614475
0.935492
0.551895
0.154198
0.165306
0.754074
1.02221
0.851204
0.279581
0.0612784
0.0754916
0.0722323
0.0122155
0.00236348
0.00372339
0.0212711
0.0244241
0.136734
0.735342
0.911846
0.907387
0.498696
0.281406
0.168145
0.756368
1.02108
1.07682
0.907874
0.533054
0.294305
0.206997
0.139303
0.0898747
0.140181
0.244506
0.205114
0.12918
0.556197
0.863054
0.764864
0.488927
1.02342
0.305014
0.762497
1.02128
1.09513
1.10407
1.00702
0.996398
0.960006
0.837225
0.751797
0.766095
0.634992
0.490364
0.364144
0.264268
0.271936
0.607326
0.886137
1.08186
0.376027
0.774601
1.01114
1.01619
1.0198
1.00877
1.00845
1.00838
1.00891
1.01121
1.0375
1.13846
1.13378
1.0538
0.937365
1.0348
1.13948
1.27024
0.736522
0.424892
0.750432
1.00225
1.00314
1.00837
1.00904
1.00901
1.00549
0.998796
1.00187
1.00947
1.01034
1.01092
1.02715
1.04566
1.15979
1.27867
1.14137
0.669783
0.443074
0.714453
1.00028
1.00033
1.0054
1.00912
1.0065
1.00051
1.00195
1.01072
1.02152
1.01325
1.00952
1.01046
1.01122
1.15503
1.25919
1.14866
1.18376
0.78594
0.518344
1.00169
1.00406
1.00845
1.03986
1.1818
1.42528
1.73593
1.99572
2.08531
1.90172
1.60132
1.45966
1.4031
1.35217
1.28249
1.20902
1.20569
0.985686
0.597282
1.44221
1.84187
2.40392
2.63549
2.75538
2.88529
2.95802
2.97744
2.98591
2.98887
2.95493
2.86304
2.78458
2.68231
2.48383
2.1442
1.72151
1.51825
1.24368
2.99702
2.99475
2.99251
2.98993
2.9892
2.99492
2.99999
2.99999
2.99999
2.99967
2.99901
2.99913
2.99937
2.99717
2.99491
2.99258
2.97018
2.67732
2.47213
2.99507
2.99999
2.99999
2.99999
2.99999
2.99999
2.99999
2.99999
2.99992
2.99904
2.99866
2.99897
2.99956
2.99982
2.99992
2.99998
3
2.99999
2.99974
2.99888
2.99962
2.99988
2.99995
2.99998
2.99998
2.99999
2.99999
2.99995
2.99924
2.99859
2.99858
2.9986
2.99915
2.99982
2.99992
2.99995
2.99999
3
2.99841
2.99929
2.99997
2.99998
2.99999
3
3
3
3
3
2.99989
2.99921
2.99867
2.99879
2.99968
2.99981
2.99986
2.99998
3
2.99937
2.99902
2.99897
2.99944
2.99998
3
3
3
3
3
3
2.9999
2.99971
2.99972
2.99979
2.9998
2.99985
2.99997
3
2.99994
2.99942
2.99896
2.99896
2.99942
2.99993
3
3
3
3
3
2.99995
2.99991
2.99999
2.99988
2.99985
2.99991
2.99999
3
2.99999
3
2.99966
2.99905
2.99905
2.99916
2.99953
2.99983
2.99998
3
3
2.99961
2.99972
2.99998
2.99999
2.99991
3
3
2.99999
3
3
3
2.9998
2.99923
2.99917
2.99923
2.99932
2.99948
2.99977
2.99964
2.99946
2.99967
2.99997
3
3
3
3
2.99999
3
3
3
3
2.99998
2.99981
2.99941
2.99932
2.99933
2.99933
2.99932
2.99946
2.99989
2.99999
3
3
3
3
2.99999
3
3
3
3
3
3
3
2.99995
2.99986
2.99978
2.99983
2.99995
2.99999
3
3
3
3
3
2.99999
3
3
3
3
3
3
3
3
3
2.99999
3
3
3
3
3
3
3
3
2.99999
3
3
3
3
3
3
3
3
3
3
3
3
3
3
3
3
3
3
2.99999
3
3
3
3
3
3
3
3
3
3
3
3
3
3
3
3
3
3
3
3
3
3
3
3
3
3
3
3
3
3
3
3
3
3
3
3
2.99998
3
3
3
3
3
3
3
3
3
3
3
3
3
3
3
3
3
3
2.99998
2.99999
3
3
3
3
3
3
3
3
3
3
3
3
3
3
3
3
2.99999
2.99998
2.99999
3
3
3
3
3
3
3
3
3
3
3
3
3
3
3
3
3
2.99998
3
3
3
3
3
3
3
3
3
3
3
3
3
3
3
3
3
3
3
3
3
3
3
3
3
3
3
3
3
3
3
3
3
3
3
3
3
3
3
3
3
3
3
3
3
3
3
3
3
3
3
3
3
3
3
3
3
3
3
3
3
3
3
3
3
3
3
3
3
3
3
3
3
3
3
3
3
3
3
3
3
3
3
3
3
3
3
3
3
3
3
3
3
3
3
3
3
3
3
3
3
3
3
3
3
3
3
3
3
3
3
3
3
3
3
3
3
3
3
3
3
3
3
3
3
3
3
3
3
3
3
3
3
3
3
3
3
3
3
3
3
3
3
3
3
3
3
3
3
3
3
3
3
3
3
3
3
3
3
3
3
3
3
3
3
3
3
3
3
3
3
3
3
3
3
3
3
3
3
3
3
3
3
3
3
3
3
3
3
3
3
3
3
3
3
3
3
3
3
3
3
3
3
3
3
3
3
3
3
3
3
3
3
3
3
3
3
3
3
3
3
3
3
3
3
3
3
3
3
3
3
3
3
3
3
3
3
3
3
3
3
3
3
3
3
3
3
3
3
3
3
3
3
3
3
3
3
3
3
3
3
3
3
3
3
3
3
)
;

boundaryField
{
    leftWall
    {
        type            calculated;
        value           nonuniform List<scalar> 
50
(
2
2
2
2
1.99996
1.44795
1.01932
0.937182
1.13476
1.27067
1.18212
1.04723
1.04736
1.04752
1.35009
2.34024
2.99987
2.9999
3
3
3
3
3
3
3
3
3
3
3
3
3
3
3
3
3
3
3
3
3
3
2.99997
2.99994
2.99994
2.99994
2.99994
2.99995
3
3
3
3
)
;
    }
    rightWall
    {
        type            calculated;
        value           nonuniform List<scalar> 
50
(
1.939
1.94525
1.72231
1.09316
0.48075
0.306853
0.101571
0.106067
0.10774
0.32595
0.754074
0.756368
0.762497
0.774601
0.750432
0.714453
0.518344
0.597282
1.24368
2.47213
2.99974
3
3
3
3
2.99999
2.99999
2.99999
2.99999
2.99999
2.99999
3
3
2.99999
2.99999
3
3
3
3
3
3
3
3
3
3
3
3
3
3
3
)
;
    }
    lowerWall
    {
        type            calculated;
        value           nonuniform List<scalar> 
62
(
2
2
2
2
2
2
2
2
2
2
2
2
2
2
2
2
2
2
2
2
2
1.99995
1.99994
1.99994
1.99996
2
2.00002
1.80344
0.381756
0.0145414
0.0155674
0.0422499
0.101059
0.192226
0.274848
1.76755
1.76726
1.6525
1.43361
0.578422
0.424982
0.443522
0.83053
1.76755
1.86001
1.87744
1.87781
1.87845
1.89006
1.90674
1.91531
1.92188
1.91963
1.91696
1.91877
1.92979
1.93205
1.93134
1.93222
1.93222
1.93381
1.939
)
;
    }
    atmosphere
    {
        type            calculated;
        value           nonuniform List<scalar> 
46
(
3
3
3
3
3
3
3
3
3
3
3
3
3
3
3
3
3
3
3
3
3
3
3
3
3
3
3
3
3
3
3
3
3
3
3
3
3
3
3
3
3
3
3
3
3
3
)
;
    }
    defaultFaces
    {
        type            empty;
    }
}


// ************************************************************************* //
