/*--------------------------------*- C++ -*----------------------------------*\
| =========                 |                                                 |
| \\      /  F ield         | OpenFOAM: The Open Source CFD Toolbox           |
|  \\    /   O peration     | Version:  2312                                  |
|   \\  /    A nd           | Website:  www.openfoam.com                      |
|    \\/     M anipulation  |                                                 |
\*---------------------------------------------------------------------------*/
FoamFile
{
    version     2.0;
    format      ascii;
    arch        "LSB;label=32;scalar=64";
    class       volScalarField;
    location    "1.9";
    object      alpha.water;
}
// * * * * * * * * * * * * * * * * * * * * * * * * * * * * * * * * * * * * * //

dimensions      [0 0 0 0 0 0 0];

internalField   nonuniform List<scalar> 
2268
(
7.55811e-10
4.56552e-10
1.7072e-10
6.46665e-11
3.81263e-11
3.00869e-11
2.79714e-11
2.67835e-11
2.62378e-11
2.61527e-11
2.6561e-11
2.82984e-11
3.18109e-11
3.8807e-11
4.8591e-11
6.60292e-11
9.89184e-11
1.60382e-10
2.62823e-10
4.45328e-10
7.277e-10
9.46282e-10
1.10779e-09
9.38207e-10
7.24521e-10
3.09708e-10
1.29862e-10
8.2568e-11
5.44509e-11
4.54726e-11
4.10811e-11
4.04588e-11
4.07071e-11
4.06617e-11
4.26872e-11
5.35491e-11
6.32959e-11
8.41966e-11
1.33589e-10
2.16078e-10
3.78129e-10
7.17437e-10
1.26173e-09
1.98641e-09
2.30765e-09
2.32631e-09
7.28303e-10
7.02085e-10
3.73874e-10
1.97271e-10
1.17849e-10
9.27147e-11
7.65554e-11
6.67484e-11
6.05917e-11
5.31552e-11
4.67566e-11
4.5746e-11
5.44032e-11
7.37563e-11
9.09434e-11
1.44373e-10
2.61138e-10
4.85517e-10
7.14231e-10
1.04615e-09
1.42202e-09
2.61313e-09
2.64986e-09
4.02398e-11
3.15287e-11
3.17332e-11
7.48495e-11
6.59832e-11
6.98869e-11
1.08614e-10
1.12343e-10
4.78003e-11
4.0498e-11
3.68765e-11
3.68622e-11
4.41758e-11
6.20343e-11
9.49329e-11
1.4255e-10
1.80107e-10
1.53625e-10
1.53912e-10
1.54201e-10
7.81495e-09
7.00696e-09
2.65048e-09
1.82227e-05
9.43161e-05
3.23911e-09
3.39899e-14
1.61715e-26
-2.90298e-15
3.79431e-12
2.0095e-12
8.04225e-12
1.09013e-11
1.67435e-11
1.72291e-11
2.22264e-11
5.85937e-10
1.42186e-10
2.40612e-11
2.4628e-11
2.40614e-11
0.00269934
0.0193603
0.0421361
0.0653863
0.0982282
0.270253
0.262561
0.196595
0.121039
0.0523359
0.00661939
1.61284e-28
-7.73443e-13
-3.99359e-12
-4.20945e-20
-7.17171e-20
1.02283e-19
-1.64815e-19
0.000146478
0.0167501
0.0738995
0.176409
0.321333
0.496872
0.629804
0.710076
0.762996
0.804447
0.11941
0.627942
0.880371
0.816799
0.707376
0.581453
0.471204
0.4058
0.346482
0.277288
0.239514
0.236202
0.282934
0.424495
0.62479
0.79765
0.916738
0.988313
0.998348
0.997748
0.996764
0.989906
0.986687
0.0767624
0.714012
0.997439
0.998248
0.998245
0.998109
0.992838
0.984179
0.975951
0.966315
0.945522
0.941193
0.964605
0.99933
0.99933
0.999268
0.999197
0.999193
0.998925
0.996848
0.996235
0.995805
0.986486
0.087236
0.0407921
0.0321467
0.0328199
0.0331562
0.0277308
0.0269564
0.0256059
0.0256037
0.0245329
0.0237654
0.0267872
0.0267872
0.0267838
0.0256321
0.0251552
0.0251524
0.0237352
0.0175971
0.0872649
0.0359298
0.0426818
0.086838
0.0812747
0.0544901
0.0967701
0.16362
0.217278
0.165605
0.00861961
0.00861798
0.00861799
0.00854744
0.0109559
0.0370765
0.0398736
0.0113403
0.01135
0.0455524
0.0196818
0.0197021
0.0207353
0.0281955
0.0798275
0.119847
0.273473
0.407549
0.407814
0.382695
0.106137
0.0180444
0.00854361
0.0085415
0.0424998
0.10833
0.110732
0.0113594
0.0700012
0.297602
0.576985
0.437671
0.327812
0.370864
0.365127
0.231504
0.204526
0.379906
0.383464
0.173345
0.11673
0.0716629
0.136884
0.186058
0.275343
0.3895
0.201053
0.627533
0.838244
0.838798
0.827786
0.792382
0.749185
0.755269
0.345571
0.127167
0.136117
0.142818
0.187028
0.139273
0.194122
0.402467
0.548893
0.856558
0.893693
0.534436
0.746591
0.698825
0.405214
0.2951
0.549341
0.74881
0.755242
0.350305
0.12732
0.127244
0.265817
0.397429
0.338654
0.332129
0.742991
0.890019
0.901132
0.901136
0.69551
0.6445
0.344645
0.165018
0.208614
0.619387
0.748935
0.41038
0.130441
0.131221
0.273777
0.796691
0.93603
0.805451
0.678653
0.853127
0.901132
0.901136
0.901142
0.901148
0.252485
0.13538
0.297005
0.974996
0.938517
0.581623
0.133868
0.130344
0.399249
0.840095
0.999973
0.999973
0.986381
0.893489
0.837453
0.860257
0.781685
0.879078
0.901131
0.0116185
0.197983
0.855333
0.99477
0.989535
0.990006
0.993168
0.999132
0.999129
0.999109
0.99909
0.999169
0.999266
0.99933
0.99933
0.998488
0.992469
0.988823
0.9758
0.98555
0.986618
0.984933
0.986444
0.00102219
0.00509999
0.0991439
0.373759
0.404631
0.466829
0.572072
0.814352
0.900789
0.906134
0.938439
0.949294
0.937666
0.886805
0.817414
0.733999
0.632745
0.522318
0.413017
0.36367
0.430686
0.613924
0.796908
3.42357e-05
1.16673e-05
1.16671e-05
0.000494634
6.71314e-05
0.00202138
0.0130201
0.012139
0.0214684
0.0663921
0.267588
0.368122
0.320165
0.219441
0.123786
0.0561346
0.00010143
2.92381e-06
0.000935953
0.0052052
0.0145389
0.0329058
0.117373
1.16673e-05
1.16666e-05
3.80743e-05
0.000548788
4.61407e-05
0.000230763
5.74692e-09
5.15452e-09
5.51029e-09
1.94072e-09
1.50828e-09
1.52212e-09
1.58077e-09
3.30678e-09
2.1555e-09
4.1603e-10
2.65715e-05
3.35528e-06
5.45301e-07
0.000396494
0.000441166
0.0032774
0.0116453
1.23064e-05
1.16712e-05
7.98303e-05
0.000225172
1.38345e-05
8.14045e-07
3.18804e-07
0.000293644
0.000282491
0.000226413
0.000211648
0.000223103
0.000756016
0.00112116
0.00100531
0.00095487
0.000868309
0.000216528
4.30419e-07
0.0010563
0.00741938
0.00892317
0.00792596
4.07699e-05
1.32661e-05
3.55845e-05
1.66665e-05
1.33162e-05
1.82659e-06
7.71915e-07
0.00118238
0.00367453
0.0039235
0.00373975
0.00446975
0.00603139
0.00603357
0.00235769
0.000586909
0.000315339
0.000652078
0.000936632
0.00202016
0.00872219
0.00897754
0.00441037
4.23379e-05
3.05542e-05
2.89111e-05
3.04979e-05
3.09066e-05
7.68707e-06
1.20864e-06
0.00126071
0.00474132
0.00562216
0.00580633
0.00603139
0.00603357
0.00351489
8.50816e-05
1.52124e-07
3.25925e-07
4.34123e-06
0.000576463
0.00244721
0.00308803
0.00265313
4.4791e-06
4.2338e-05
4.04919e-05
3.29371e-05
3.23853e-05
3.24482e-05
1.01928e-05
1.9822e-06
7.95837e-05
4.45829e-08
1.75574e-06
0.000184379
0.00274785
0.0036983
0.000243643
3.69584e-07
1.99795e-07
2.8121e-07
5.89257e-06
0.000109877
0.000223173
0.000198236
0.000945879
0.0265975
4.23374e-05
1.3345e-05
5.3705e-06
3.44369e-06
4.23692e-06
1.52183e-06
2.12716e-06
4.31431e-08
4.50635e-08
4.45829e-08
4.65981e-08
4.65941e-08
7.01583e-05
8.92764e-08
6.57016e-07
1.77294e-06
2.33833e-07
3.71709e-07
2.74331e-07
0.000317519
0.0263515
0.041647
0.0416469
3.24657e-05
8.74851e-06
6.65355e-07
2.18945e-07
2.18915e-07
1.09238e-06
2.99498e-06
8.83567e-07
2.41335e-07
2.30204e-07
1.45579e-07
8.71825e-08
8.11292e-08
8.16282e-08
1.37811e-07
6.36321e-06
2.07109e-05
2.38173e-07
4.16204e-07
0.000904692
0.0313242
0.0416469
0.035924
1.9985e-08
1.9985e-08
3.65693e-07
3.6603e-07
2.19121e-07
1.93497e-06
2.96669e-06
1.06826e-06
6.56653e-07
6.40383e-07
2.23394e-07
1.13361e-08
1.1624e-07
2.51997e-07
2.35638e-07
9.03161e-08
8.50465e-05
0.00022831
5.74508e-05
0.00027429
0.00628541
0.0100982
0.00387164
1.9985e-08
1.9985e-08
1.83563e-07
6.21584e-08
2.51807e-07
5.25963e-07
1.0645e-06
7.35586e-07
4.42611e-07
1.42698e-07
3.76088e-10
1.28914e-08
9.39036e-08
2.48936e-07
1.91938e-07
9.50198e-08
6.50568e-05
0.000366142
0.000366114
0.000197012
0.000130111
1.34319e-05
1.87752e-05
1.9985e-08
2.01771e-08
2.0154e-08
2.72475e-08
1.95722e-07
4.94784e-07
5.886e-07
3.62818e-07
7.75344e-08
1.48961e-10
3.65759e-10
3.67467e-09
3.05431e-08
8.26798e-08
7.28953e-08
7.14335e-08
6.37088e-06
0.000234558
0.000366134
0.000362694
0.000165425
1.33905e-05
3.46511e-05
7.51675e-08
3.30946e-08
3.80025e-08
1.03251e-07
1.6487e-07
3.58649e-07
3.11726e-07
7.79984e-08
1.20783e-10
1.47719e-10
3.3719e-10
8.07368e-10
1.7616e-09
3.77054e-09
6.09765e-09
1.55855e-08
1.8409e-08
1.11131e-05
0.000247362
0.000359838
0.000165949
9.24761e-06
9.77314e-06
2.39635e-07
3.59501e-08
4.38331e-08
4.45269e-08
9.89939e-08
1.28629e-07
7.78481e-08
1.04298e-09
1.21337e-10
2.22964e-10
2.77103e-10
3.15874e-10
5.72247e-10
7.86134e-10
9.06054e-10
9.56923e-10
3.2093e-08
1.24071e-07
6.41339e-06
4.76479e-05
2.15603e-05
2.23889e-06
1.37487e-06
2.36818e-07
2.00246e-09
1.35808e-08
5.15911e-09
1.80007e-09
1.83735e-10
1.83442e-10
1.83199e-10
2.06337e-10
1.9352e-10
2.00094e-10
2.35274e-10
4.44937e-10
6.68351e-10
7.69932e-10
1.61252e-09
4.39939e-08
1.59897e-07
3.75807e-08
4.17299e-08
2.07102e-08
-1.32248e-12
1.32694e-25
2.17725e-07
9.68144e-10
1.1103e-09
9.46514e-10
3.88735e-10
2.80118e-10
2.13215e-10
1.82966e-10
1.61775e-10
1.30329e-10
1.2446e-10
1.64735e-10
2.69517e-10
4.46076e-10
6.84507e-10
1.69066e-09
1.90625e-08
4.00119e-08
6.08705e-09
8.86492e-09
4.13832e-09
1.3798e-09
3.48861e-11
2.1696e-07
9.72911e-10
9.29528e-10
9.30675e-10
5.50006e-10
3.51523e-10
2.18936e-10
1.48609e-10
1.02467e-10
7.83675e-11
7.12918e-11
8.73674e-11
1.3593e-10
2.24274e-10
3.98426e-10
9.12259e-10
1.9138e-09
4.27601e-10
1.31974e-09
7.20513e-09
4.34446e-09
1.07035e-09
3.81721e-10
2.35122e-07
1.18111e-09
9.16225e-10
7.87521e-10
4.65779e-10
2.71284e-10
1.74161e-10
1.11726e-10
7.44569e-11
5.46066e-11
4.3158e-11
4.35074e-11
5.8827e-11
9.51542e-11
1.6744e-10
3.66655e-10
3.92156e-10
4.22829e-10
7.3475e-10
2.49193e-09
1.8918e-09
7.6545e-10
5.4626e-10
2.38766e-07
8.9724e-10
1.1314e-09
8.06801e-10
4.00509e-10
2.29092e-10
1.68994e-10
1.20857e-10
7.812e-11
4.91883e-11
3.12759e-11
2.34629e-11
2.44394e-11
3.56929e-11
6.16099e-11
1.22382e-10
1.76913e-10
2.17628e-10
3.08707e-10
7.39105e-10
5.18854e-10
3.49416e-10
4.08446e-10
2.37094e-07
7.17343e-10
1.40592e-09
9.42941e-10
4.39119e-10
2.68015e-10
2.00994e-10
1.4876e-10
9.4244e-11
5.52834e-11
2.95656e-11
1.71591e-11
1.19626e-11
1.28155e-11
1.958e-11
3.39984e-11
5.81991e-11
7.59939e-11
1.01879e-10
2.15707e-10
1.40102e-10
1.7092e-10
3.05818e-10
6.86034e-08
6.28911e-10
1.60176e-09
1.11326e-09
4.8033e-10
3.36258e-10
2.8167e-10
1.75888e-10
1.17955e-10
6.56529e-11
3.2871e-11
1.63415e-11
8.51086e-12
5.75502e-12
5.9726e-12
8.76214e-12
1.49417e-11
2.16011e-11
2.94831e-11
5.45323e-11
5.04629e-11
7.1444e-11
1.71456e-10
2.55091e-09
5.73536e-10
1.67056e-09
1.14586e-09
5.93611e-10
5.16909e-10
4.01912e-10
2.19867e-10
1.46922e-10
7.84162e-11
3.73768e-11
1.71891e-11
8.03628e-12
4.01723e-12
2.4784e-12
2.31514e-12
3.21775e-12
4.83437e-12
6.97396e-12
1.21682e-11
1.40824e-11
2.75118e-11
7.52737e-11
2.47794e-10
2.55372e-10
1.55739e-09
1.1918e-09
8.87473e-10
9.16215e-10
5.88931e-10
2.81207e-10
1.86986e-10
9.48881e-11
4.23717e-11
1.84046e-11
8.15321e-12
3.63651e-12
1.69765e-12
9.4204e-13
7.42158e-13
1.01775e-12
1.60082e-12
2.75397e-12
4.43998e-12
8.05179e-12
2.31835e-11
6.14116e-07
1.49019e-10
1.02853e-09
1.28938e-09
1.61097e-09
1.67267e-09
8.72256e-10
3.67652e-10
2.43922e-10
1.19243e-10
4.88306e-11
1.93936e-11
8.16319e-12
3.4464e-12
1.47065e-12
6.44958e-13
3.14643e-13
2.16439e-13
3.32705e-13
6.08736e-13
9.7026e-13
2.17138e-12
6.17912e-12
1.37102e-06
9.50806e-11
3.65754e-10
1.26659e-09
2.14532e-09
2.2172e-09
1.32923e-09
4.97685e-10
3.24305e-10
1.57819e-10
5.97617e-11
2.05145e-11
7.96139e-12
3.19979e-12
1.31261e-12
5.3759e-13
2.18022e-13
9.40789e-14
6.4069e-14
1.22355e-13
2.31555e-13
4.32991e-13
1.36475e-12
1.37129e-06
9.42591e-11
9.42471e-11
9.504e-10
1.92684e-09
2.30441e-09
1.68755e-09
6.813e-10
4.303e-10
2.21149e-10
7.78731e-11
2.41522e-11
7.74616e-12
2.89873e-12
1.13396e-12
4.50678e-13
1.7332e-13
6.72111e-14
2.18171e-14
2.22848e-14
3.58018e-14
7.39476e-14
2.61419e-13
1.37129e-06
4.15275e-08
6.13487e-09
4.24826e-10
1.13801e-09
1.65816e-09
1.73907e-09
9.26867e-10
5.7792e-10
3.08466e-10
1.1286e-10
3.14844e-11
7.83853e-12
2.5917e-12
9.62486e-13
3.59517e-13
1.34901e-13
4.66967e-14
1.65963e-14
4.85242e-15
6.43881e-15
1.06846e-14
4.26226e-14
1.37129e-06
1.18742e-06
4.12239e-08
3.28576e-10
3.04559e-10
3.03543e-10
1.8287e-09
1.24133e-09
7.6342e-10
4.32865e-10
1.74356e-10
4.6245e-11
9.65758e-12
2.47963e-12
7.91552e-13
2.84384e-13
1.00125e-13
3.42696e-14
1.01261e-14
3.2594e-15
8.82592e-16
1.29183e-15
6.02413e-15
1.0364e-06
1.38137e-06
2.595e-08
1.15334e-09
3.03525e-10
2.27934e-08
2.54062e-09
1.57406e-09
1.0456e-09
5.92474e-10
2.6759e-10
7.96924e-11
1.60748e-11
3.04523e-12
7.37364e-13
2.18003e-13
7.18701e-14
2.29786e-14
6.60542e-15
1.75692e-15
4.73254e-16
1.50618e-16
6.51247e-16
2.33986e-07
1.22714e-06
6.35823e-07
1.34155e-06
3.85788e-07
8.62974e-08
1.57891e-09
1.70847e-09
1.46011e-09
8.19375e-10
4.03092e-10
1.43988e-10
3.51356e-11
6.33146e-12
1.03243e-12
2.08391e-13
5.27385e-14
1.49489e-14
3.95789e-15
1.00664e-15
2.4676e-16
2.30274e-17
5.99976e-17
1.66566e-07
4.98559e-07
3.24242e-06
3.29712e-06
2.53626e-06
1.35165e-07
1.57785e-09
2.18915e-09
2.03217e-09
1.09547e-09
5.45446e-10
2.27918e-10
7.32297e-11
1.60095e-11
2.60668e-12
3.68504e-13
5.67656e-14
1.03152e-14
2.38727e-15
5.10434e-16
1.1874e-16
6.19138e-18
5.50891e-18
1.66262e-07
4.06022e-07
3.29712e-06
3.29712e-06
2.29276e-06
8.328e-08
1.5789e-09
4.85902e-09
4.4014e-09
1.46116e-09
6.65496e-10
3.17402e-10
1.09383e-10
3.02604e-11
5.89422e-12
8.84011e-13
1.03084e-13
1.28809e-14
1.68747e-15
2.87713e-16
4.63349e-17
6.41092e-18
4.87697e-19
2.85969e-07
3.66572e-07
1.93761e-06
2.43148e-06
5.06354e-07
3.1375e-08
8.08243e-09
1.23066e-08
8.17129e-09
1.91481e-09
7.91088e-10
3.75369e-10
1.41092e-10
4.23844e-11
9.42159e-12
1.64391e-12
2.17459e-13
2.41332e-14
2.08756e-15
2.07373e-16
2.25852e-17
3.11206e-18
6.98866e-20
1.18688e-06
3.90904e-07
1.90316e-07
9.94781e-08
3.83008e-08
1.45449e-08
1.32783e-08
1.33562e-08
7.14856e-09
1.36051e-09
7.57798e-10
3.94429e-10
1.59025e-10
5.14961e-11
1.30504e-11
2.46283e-12
3.41352e-13
3.69963e-14
3.35602e-15
2.47274e-16
2.10005e-17
1.88449e-18
2.61869e-20
1.18689e-06
2.24257e-07
5.79002e-09
6.31032e-09
1.14281e-08
9.4968e-09
1.32977e-08
1.07394e-08
2.9001e-09
1.1267e-09
6.98209e-10
3.60465e-10
1.51049e-10
5.08798e-11
1.26698e-11
2.50032e-12
3.78836e-13
4.23274e-14
3.99225e-15
2.95756e-16
1.86379e-17
1.22393e-18
7.23109e-21
1.18689e-06
1.30197e-07
5.72802e-09
5.90656e-09
6.0785e-09
8.41499e-09
9.07696e-09
3.80453e-09
1.26653e-09
9.06539e-10
5.64451e-10
2.80094e-10
1.11232e-10
3.48273e-11
8.54762e-12
1.66025e-12
2.53922e-13
2.85273e-14
2.77369e-15
2.15684e-16
1.38325e-17
7.22103e-19
1.65873e-20
1.18689e-06
5.97294e-07
2.20384e-08
1.16046e-08
6.81118e-09
2.40624e-08
6.32606e-09
1.34048e-09
1.04403e-09
7.40877e-10
4.03629e-10
1.72084e-10
6.00994e-11
1.66983e-11
3.76962e-12
6.75819e-13
1.01e-13
1.14439e-14
1.12489e-15
8.10214e-17
4.50719e-18
2.60088e-19
1.05163e-20
2.95747e-07
9.98409e-07
9.77518e-07
9.05486e-07
7.4463e-07
1.30731e-07
1.32237e-09
1.223e-09
1.01239e-09
5.7758e-10
2.45489e-10
7.91968e-11
2.18869e-11
5.04816e-12
9.74913e-13
1.671e-13
2.39718e-14
2.65643e-15
2.57088e-16
1.94917e-17
1.17953e-18
5.66618e-20
2.27724e-21
1.60458e-08
5.86096e-07
1.01797e-06
1.01739e-06
8.22967e-07
9.83047e-08
1.31562e-09
1.10768e-09
6.91993e-10
2.82062e-10
8.55028e-11
2.27673e-11
4.87199e-12
9.53853e-13
1.64966e-13
2.43851e-14
3.3557e-15
3.99493e-16
3.84881e-17
2.85752e-18
1.80802e-19
8.81705e-21
3.37022e-22
8.41295e-09
8.8307e-09
1.99449e-07
2.79327e-07
1.12112e-07
1.5896e-08
1.38933e-09
6.88747e-10
2.69052e-10
8.41103e-11
2.10974e-11
4.20094e-12
7.27169e-13
1.1349e-13
1.77639e-14
2.6489e-15
3.55596e-16
4.2467e-17
4.24257e-18
3.50933e-19
2.33883e-20
1.15228e-21
4.20804e-23
3.2297e-09
1.38461e-09
9.71048e-10
9.46956e-10
9.49049e-10
9.55505e-10
6.82972e-10
2.50514e-10
8.04438e-11
1.96964e-11
3.80452e-12
6.13748e-13
8.69542e-14
1.15959e-14
1.5676e-15
2.17412e-16
2.90829e-17
3.61879e-18
3.98636e-19
3.76148e-20
2.7811e-21
1.50167e-22
5.09675e-24
0.969402
0.931722
0.893048
0.800869
0.863832
0.85583
0.856824
0.78152
0.22937
0.356875
0.379378
0.27557
0.0122207
0.00189017
0.00915117
0.013532
0.00136957
1.4288e-13
0.00379995
0.0126318
1.42846e-13
1.63045e-13
0.00073297
0.0100408
1.50979e-13
1.4288e-13
0.000886403
0.00498505
0.0414839
0.0354175
0.00674549
0.00307788
0.041647
0.0416452
0.0412881
0.0289837
0.00208885
0.000470177
0.00252878
0.00336758
4.09942e-07
4.40021e-07
5.326e-10
6.24422e-10
0.000134547
8.69374e-05
2.73376e-08
4.43218e-06
7.15103e-05
9.02419e-05
0.000151203
0.000150375
2.02938e-05
1.55349e-05
2.15673e-05
0.000100624
4.41045e-06
1.37107e-05
1.21371e-05
2.13857e-05
6.91058e-07
6.7985e-06
3.57113e-06
6.78704e-10
5.35082e-11
2.01285e-07
8.32076e-08
5.27354e-10
2.49821e-10
-3.08886e-12
-7.48001e-27
5.28943e-16
7.97061e-10
1.91438e-09
2.70327e-09
4.17474e-09
7.34824e-10
1.77162e-09
4.11742e-09
5.08725e-09
5.8063e-10
1.41177e-09
1.88238e-09
3.35787e-09
3.712e-10
5.61868e-10
8.76291e-10
1.17609e-09
1.33857e-10
2.02882e-10
2.84514e-10
3.88051e-10
3.61713e-11
4.78805e-11
8.00288e-11
1.13864e-10
8.90245e-12
1.28721e-11
1.94161e-11
3.22913e-11
2.10935e-12
2.77349e-12
5.11062e-12
8.55798e-12
4.63939e-13
6.86484e-13
1.11834e-12
2.06865e-12
7.0431e-14
9.66073e-14
2.04118e-13
3.81545e-13
9.85965e-15
1.57507e-14
2.89654e-14
6.35689e-14
1.2134e-15
1.65262e-15
3.75572e-15
8.24757e-15
1.3397e-16
1.98695e-16
3.90983e-16
8.74244e-16
1.1149e-17
1.4363e-17
3.427e-17
7.57969e-17
6.69979e-19
1.09435e-18
2.58685e-18
5.90957e-18
5.37969e-20
7.00642e-20
1.9003e-19
4.82041e-19
2.22196e-21
4.80156e-21
1.40222e-20
3.60884e-20
1.71879e-25
2.98624e-22
1.03276e-21
3.00095e-21
6.22015e-28
1.77347e-23
8.31158e-23
2.61394e-22
5.99728e-28
1.94936e-24
6.17126e-24
2.29643e-23
5.99723e-28
1.50941e-25
5.71752e-25
1.64859e-24
5.99723e-28
1.71406e-26
3.84027e-26
1.31602e-25
5.99723e-28
2.77996e-27
3.70564e-27
1.08129e-26
5.99723e-28
6.28485e-28
3.38057e-28
8.30601e-28
0.273995
0.155176
0.80513
0.99784
0.927986
0.466
0.249756
0.580531
0.984536
0.999923
0.999583
0.999973
0.980298
0.776486
0.602914
0.542892
0.550643
0.661123
0.900294
0.417902
0.430759
0.998753
0.998795
0.989749
0.899281
0.830129
0.891753
0.999691
0.999944
0.999944
0.999973
0.999935
0.876173
0.462536
0.465623
0.599207
0.661154
0.725537
0.188088
0.539446
0.998798
0.998792
0.998926
0.999174
0.999188
0.999228
0.999338
0.999199
0.99994
0.998114
0.934388
0.677675
0.407097
0.599517
0.880614
0.880588
0.340104
0.0151485
0.222383
0.772651
0.978828
0.973698
0.974847
0.995814
0.999208
0.99866
0.992247
0.991032
0.950693
0.583142
0.407374
0.406978
0.62508
0.782203
0.879512
0.338019
0.0160311
0.0179159
0.202277
0.579506
0.768135
0.852945
0.912613
0.946789
0.944376
0.915831
0.929027
0.952828
0.637216
0.412514
0.444314
0.565396
0.328784
0.821866
0.323944
0.0157222
0.00328545
0.00110422
0.018454
0.0263505
0.0736885
0.183136
0.306253
0.402007
0.544744
0.688846
0.754896
0.761906
0.756998
0.441009
0.214692
0.316406
0.793426
0.325312
0.00636888
0.00077539
0.000777313
0.000781551
0.000780004
0.000815629
0.000616873
6.16381e-16
-6.16368e-16
-1.03198e-19
0.0384051
0.108272
0.151664
0.0366076
0.00271594
0.0364093
0.636154
0.793941
0.361064
0.00308366
0.00276637
0.000980731
0.000766473
0.000792463
0.00195748
0.00409739
0.00274977
9.49505e-05
-2.69611e-10
4.82323e-10
7.517e-13
3.91932e-13
1.0453e-15
0.00120532
0.2248
0.696489
0.789279
0.39215
0.00372271
0.00369142
0.00196279
0.000767769
0.00148755
0.00373709
0.00676383
0.00533191
0.00161836
-3.10238e-08
1.04708e-08
7.71327e-06
5.10896e-05
-2.35415e-09
0.0282617
0.177167
0.156244
0.50646
0.547329
0.00335914
0.00221412
0.000800334
0.000831298
0.00543632
0.0111906
0.0111906
0.0111523
0.00484442
1.2388e-09
9.02512e-08
6.09401e-05
0.000322766
0.00412539
0.00727405
2.28152e-06
0.000238422
0.11137
0.453098
6.20009e-10
5.37292e-06
0.00511746
0.0111905
0.0111902
0.0111906
0.00962795
0.00345683
0.000856915
9.69197e-05
0.000132696
0.000296838
0.000223324
2.37482e-06
2.28161e-06
2.19042e-06
5.38847e-07
0.00822437
0.113119
1.12677e-06
0.000118991
0.000678235
0.00232489
0.00349754
0.0016922
2.29208e-06
1.18725e-06
2.61212e-06
0.000109916
0.000329102
0.000272765
1.47599e-05
1.44552e-05
1.09721e-05
1.62871e-06
5.29713e-07
2.95583e-07
2.89419e-07
8.38829e-05
1.95089e-07
2.37e-07
2.53623e-07
1.34919e-08
1.35262e-08
1.34915e-08
1.35261e-08
8.4079e-06
0.000295565
0.000428069
0.000332582
0.000147176
5.94018e-05
2.62901e-05
1.90191e-06
3.80083e-07
5.2124e-07
2.76308e-07
6.306e-05
1.94772e-06
2.60753e-06
2.59122e-06
9.72617e-07
2.91535e-08
1.35958e-08
1.3492e-08
8.15599e-06
0.000216208
0.000422023
0.000424095
0.000434504
0.000281004
5.56674e-05
5.06772e-06
3.86635e-07
4.60584e-07
5.9549e-09
6.90165e-05
3.86636e-05
1.45763e-06
9.70364e-08
9.60345e-08
9.7693e-08
2.26884e-08
2.30283e-08
1.34585e-08
1.37979e-08
1.09919e-05
0.000212874
0.000395448
0.000396624
9.55552e-05
1.85402e-05
1.73243e-06
3.15375e-25
1.70467e-27
6.24355e-05
8.11948e-05
7.92826e-05
2.25682e-05
1.51709e-08
8.30293e-09
8.31421e-09
8.9951e-09
1.31369e-08
2.51e-08
1.93597e-08
1.61735e-08
5.87795e-05
8.5737e-05
3.15486e-05
1.98161e-05
3.5085e-06
-8.92156e-25
6.84295e-10
1.7052e-05
8.02508e-05
8.20532e-05
8.20205e-05
4.22254e-05
1.16861e-06
8.31331e-09
8.31334e-09
8.31329e-09
2.01835e-08
1.79832e-07
3.24335e-07
4.28825e-08
7.87585e-08
4.9701e-09
2.48802e-06
2.50146e-06
6.33195e-08
2.48197e-09
1.57632e-08
1.678e-09
5.44079e-05
8.20532e-05
7.88138e-05
4.17945e-05
1.46089e-06
8.31327e-09
8.31351e-09
8.31328e-09
1.15048e-06
1.8478e-05
1.57145e-05
3.37384e-06
1.03789e-07
-2.43243e-10
1.95754e-11
5.79029e-08
4.95884e-09
2.24774e-09
1.67057e-09
1.30109e-09
2.16099e-05
6.77833e-05
4.82756e-05
2.74963e-05
3.18695e-07
8.3139e-09
8.33666e-09
4.48983e-06
3.00777e-05
3.01269e-05
9.47016e-06
1.39322e-07
4.10658e-08
7.44513e-09
1.29043e-08
2.67354e-09
4.24845e-09
2.34631e-09
1.29938e-09
3.7331e-10
6.27939e-06
1.37683e-05
1.02094e-05
3.2978e-06
2.13633e-07
8.67219e-09
6.02303e-06
3.01252e-05
2.67794e-05
3.70316e-06
6.85568e-08
4.44058e-08
1.23945e-08
3.44825e-10
1.66584e-10
3.26054e-09
2.5381e-09
1.49265e-09
3.81993e-10
2.23527e-10
2.23419e-10
2.87743e-09
6.01874e-07
2.14724e-07
1.0006e-08
1.04012e-05
1.49412e-05
1.93773e-06
3.49387e-08
1.84696e-08
1.71384e-08
6.96523e-09
1.00321e-10
1.40776e-11
1.27351e-09
1.46699e-09
1.47622e-09
1.09221e-09
5.07487e-10
2.2353e-10
2.26365e-10
7.57802e-10
7.40922e-08
2.82481e-06
1.27543e-06
1.45505e-08
2.11411e-09
7.74194e-10
7.21298e-11
7.15763e-11
7.15575e-11
7.14059e-11
1.3851e-11
4.30863e-10
5.0153e-10
5.6401e-10
5.68998e-10
4.5282e-10
2.32168e-10
6.21525e-10
1.03712e-08
2.14403e-07
1.03974e-07
1.25749e-10
1.24162e-10
1.25665e-10
1.33359e-10
1.32888e-10
1.14326e-10
9.22964e-11
4.3396e-11
5.212e-12
1.46474e-10
1.72003e-10
2.03939e-10
2.3013e-10
2.31246e-10
1.61159e-10
6.44367e-09
1.19569e-08
1.00737e-08
1.16022e-10
1.66963e-10
2.16605e-10
2.15019e-10
1.93487e-10
1.6404e-10
1.25208e-10
8.08001e-11
2.41303e-11
2.88786e-12
4.72823e-11
5.9281e-11
7.11735e-11
9.22939e-11
1.09932e-10
1.60048e-10
1.37784e-10
3.37998e-10
9.26512e-11
1.14706e-10
1.78138e-10
1.77493e-10
1.49837e-10
1.22427e-10
1.00636e-10
8.24376e-11
4.76565e-11
1.37492e-11
2.19844e-12
1.41332e-11
1.89818e-11
2.53461e-11
3.25342e-11
4.59568e-11
5.27438e-11
5.06922e-11
5.25046e-11
7.21926e-11
8.61425e-11
8.69986e-11
7.96148e-11
7.01508e-11
6.26948e-11
5.86775e-11
5.1559e-11
2.75292e-11
8.43857e-12
1.67937e-12
3.41687e-12
5.26669e-12
8.26885e-12
1.14413e-11
1.51949e-11
1.97316e-11
2.42198e-11
2.61481e-11
3.13394e-11
3.25885e-11
3.27853e-11
3.28934e-11
3.2275e-11
3.34416e-11
3.40481e-11
2.92797e-11
1.35253e-11
5.00318e-12
1.12856e-12
7.02595e-13
1.22076e-12
2.19915e-12
3.51354e-12
5.1609e-12
6.97875e-12
8.72087e-12
1.05573e-11
1.17625e-11
1.26979e-11
1.28995e-11
1.31777e-11
1.3857e-11
1.31741e-11
1.29303e-11
1.27196e-11
5.36395e-12
1.63192e-12
8.93617e-13
1.17224e-13
2.33073e-13
4.71968e-13
8.65667e-13
1.42444e-12
2.08595e-12
2.66641e-12
3.1691e-12
3.46947e-12
3.9619e-12
4.28266e-12
4.14309e-12
2.70142e-12
2.75585e-12
3.63034e-12
3.41225e-12
1.43758e-12
9.09671e-13
7.91884e-13
1.66375e-14
3.53489e-14
7.85137e-14
1.55761e-13
2.88951e-13
4.57536e-13
6.43768e-13
7.84028e-13
8.74307e-13
5.84263e-13
3.73561e-13
2.22865e-13
1.73804e-13
3.33132e-13
5.95261e-13
6.12439e-13
5.59828e-13
7.79252e-13
7.21971e-13
1.70402e-15
4.07453e-15
9.60118e-15
2.17204e-14
4.17607e-14
7.32212e-14
9.84202e-14
9.76138e-14
4.77248e-14
1.73895e-14
7.57163e-15
9.04466e-15
1.49165e-14
5.04176e-14
1.23923e-13
1.98757e-13
3.64967e-13
7.35039e-13
6.05307e-13
1.51738e-16
3.5374e-16
9.56105e-16
2.29277e-15
4.60117e-15
7.23053e-15
8.98564e-15
6.25954e-15
1.65427e-15
1.24731e-15
2.49119e-15
5.54248e-15
1.16876e-14
2.91168e-14
7.73828e-14
1.67591e-13
3.60911e-13
7.01523e-13
4.90717e-13
1.1638e-17
3.08705e-17
8.4395e-17
2.10961e-16
4.23761e-16
6.43567e-16
7.16206e-16
4.9452e-16
5.09548e-16
1.00118e-15
2.27137e-15
5.03592e-15
1.17526e-14
2.91936e-14
8.10631e-14
1.87518e-13
3.75805e-13
6.4921e-13
4.21486e-13
9.83119e-19
2.76956e-18
7.28213e-18
1.83341e-17
3.89656e-17
6.28874e-17
8.36694e-17
1.28495e-16
3.05493e-16
7.64326e-16
1.8715e-15
4.46273e-15
1.07045e-14
2.80889e-14
8.13502e-14
2.00452e-13
3.82714e-13
5.56698e-13
3.39788e-13
8.03768e-20
2.43847e-19
7.25362e-19
1.89555e-18
4.45809e-18
9.62443e-18
2.13404e-17
5.80397e-17
1.64216e-16
4.53262e-16
1.2027e-15
3.13238e-15
8.15388e-15
1.99837e-14
5.9765e-14
1.70906e-13
3.41733e-13
4.6904e-13
2.1285e-13
7.19983e-21
2.47384e-20
7.94938e-20
2.46969e-19
7.17978e-19
2.10463e-18
6.50845e-18
2.11308e-17
6.71411e-17
2.0364e-16
6.06859e-16
1.74255e-15
4.94123e-15
1.34888e-14
3.27049e-14
9.85971e-14
2.53613e-13
3.33557e-13
1.37466e-13
6.80708e-22
2.51454e-21
9.43601e-21
3.45762e-20
1.23173e-19
4.22893e-19
1.54154e-18
5.72327e-18
2.04248e-17
7.16376e-17
2.47348e-16
8.07643e-16
2.49702e-15
7.08618e-15
1.81685e-14
4.62626e-14
1.19134e-13
2.10766e-13
8.71641e-14
5.76492e-23
2.49699e-22
1.01662e-21
4.13944e-21
1.65669e-20
6.68523e-20
2.85031e-19
1.17736e-18
4.77733e-18
1.93179e-17
7.79627e-17
3.02978e-16
1.0773e-15
3.41704e-15
9.2553e-15
2.10003e-14
4.83472e-14
9.88782e-14
4.88618e-14
4.94764e-24
2.12633e-23
8.01341e-23
2.90091e-22
1.14556e-21
5.13996e-21
2.63078e-20
1.51803e-19
8.25326e-19
4.17935e-18
2.00696e-17
9.34036e-17
3.85448e-16
1.34964e-15
3.92939e-15
1.01503e-14
1.94834e-14
4.55429e-14
2.47146e-14
3.65274e-25
1.4451e-24
5.19738e-24
1.9884e-23
9.25018e-23
5.16796e-22
3.13455e-21
1.95094e-20
1.26743e-19
7.85205e-19
4.68396e-18
2.65994e-17
1.2574e-16
4.56336e-16
1.35046e-15
3.45289e-15
7.90721e-15
1.43896e-14
1.46938e-14
2.50265e-26
8.64227e-26
2.77404e-25
1.06825e-24
5.61127e-24
3.76085e-23
2.92145e-22
2.29633e-21
1.8705e-20
1.48714e-19
1.15796e-18
7.51178e-18
3.78481e-17
1.48601e-16
4.73302e-16
1.18657e-15
2.06735e-15
6.53942e-15
7.05864e-15
1.54947e-27
4.21178e-27
1.21998e-26
5.06774e-26
3.07332e-25
2.56569e-24
2.48953e-23
2.50614e-22
2.54582e-21
2.32684e-20
1.83165e-19
1.16188e-18
6.7263e-18
2.85031e-17
9.61039e-17
2.52694e-16
6.18746e-16
1.30714e-15
1.10298e-15
)
;

boundaryField
{
    leftWall
    {
        type            zeroGradient;
    }
    rightWall
    {
        type            zeroGradient;
    }
    lowerWall
    {
        type            zeroGradient;
    }
    atmosphere
    {
        type            inletOutlet;
        inletValue      uniform 0;
        value           nonuniform List<scalar> 
46
(
3.2297e-09
1.38461e-09
9.71048e-10
9.46956e-10
9.49049e-10
9.55505e-10
6.82972e-10
2.50514e-10
8.04438e-11
1.96964e-11
3.80452e-12
6.13748e-13
8.69542e-14
1.15959e-14
1.5676e-15
2.17412e-16
2.90829e-17
3.61879e-18
3.98636e-19
3.76148e-20
2.7811e-21
1.50167e-22
5.09675e-24
5.99723e-28
6.28485e-28
3.38057e-28
8.30601e-28
0
0
0
0
0
0
0
0
0
0
0
0
0
0
0
0
0
0
0
)
;
    }
    defaultFaces
    {
        type            empty;
    }
}


// ************************************************************************* //
