/*--------------------------------*- C++ -*----------------------------------*\
| =========                 |                                                 |
| \\      /  F ield         | OpenFOAM: The Open Source CFD Toolbox           |
|  \\    /   O peration     | Version:  2312                                  |
|   \\  /    A nd           | Website:  www.openfoam.com                      |
|    \\/     M anipulation  |                                                 |
\*---------------------------------------------------------------------------*/
FoamFile
{
    version     2.0;
    format      ascii;
    arch        "LSB;label=32;scalar=64";
    class       volScalarField;
    location    "1.9";
    object      alpha.galistan;
}
// * * * * * * * * * * * * * * * * * * * * * * * * * * * * * * * * * * * * * //

dimensions      [0 0 0 0 0 0 0];

internalField   nonuniform List<scalar> 
2268
(
1
1
1
1
1
1
1
1
1
1
1
1
1
1
1
1
1
1
1
1
0.999996
0.999948
0.999938
1
1
1
1
1
1
1
1
1
1
1
1
1
1
1
1
1
1
1
1
0.999999
0.99998
0.999957
1
1
1
1
1
1
1
1
1
1
1
1
1
1
1
1
1
1
1
1
1
1
1
1
1
1
1
1
1
1
1
1
1
1
1
1
1
1
1
1
1
0.999999
0.999999
1
1
0.999979
0.999982
0.999906
1
1
0.99999
1
1
0.999994
1
1
1
1
1
1
1
1
0.999999
0.999988
0.997275
0.980583
0.95727
0.932332
0.90025
0.715074
0.691481
0.757616
0.87354
0.947603
0.993326
0.999861
0.99986
0.999822
0.999787
0.999896
0.999973
0.99999
0.999845
0.98325
0.926099
0.823511
0.678333
0.502648
0.369656
0.28697
0.226192
0.184262
0.136021
0.130085
0.118528
0.181634
0.29256
0.417733
0.527257
0.59252
0.65195
0.721438
0.760128
0.763658
0.716902
0.575368
0.375147
0.202167
0.0826504
0.0106667
-6.82797e-22
-5.84679e-12
2.52012e-22
2.45677e-13
5.3135e-12
0.0114555
0.00016856
0.00159472
0.00168615
0.00157357
0.0011301
0.00639625
0.0149118
0.0230633
0.0329759
0.0539483
0.058323
0.0349096
0.000224018
0.000208175
1.01534e-15
4.41416e-26
-1.18976e-25
1.37202e-26
-1.04797e-10
6.78308e-06
4.07134e-05
8.10063e-06
0.853749
0.900684
0.909265
0.909361
0.909969
0.914673
0.914658
0.914348
0.920915
0.920919
0.918972
0.923612
0.933317
0.940837
0.945007
0.945492
0.945494
0.945494
0.945494
0.853876
0.900566
0.813
0.836832
0.766812
0.725855
0.716242
0.651043
0.619968
0.638951
0.645745
0.565024
0.546563
0.587377
0.660868
0.806924
0.898097
0.940276
0.945491
0.692637
0.537863
0.458651
0.452559
0.429592
0.378081
0.450907
0.509249
0.397141
0.370715
0.316058
0.337291
0.349681
0.305664
0.270043
0.278359
0.346811
0.523001
0.712857
0.475421
0.281523
0.245374
0.187027
0.155111
0.155534
0.185528
0.324653
0.382563
0.234467
0.17225
0.162172
0.0920334
0.0700744
0.0434818
0.0626482
0.0822399
0.0858702
0.269386
0.177753
0.132779
0.132787
0.132914
0.143489
0.21352
0.207431
0.130135
0.0991584
0.095434
0.0684608
0.00158535
0.0062638
0.00638039
0.00855952
1.8954e-22
-6.9866e-06
-6.5543e-06
0.00253859
0.155381
0.190243
0.243379
0.243685
0.243663
0.213643
0.12953
0.112982
0.0950978
0.0856235
0.00123322
2.14306e-06
0.000878782
0.012049
0.0274005
0.00148361
0.00610239
0.00537362
0.00172196
0.08163
0.116619
0.13285
0.141307
0.20191
0.156144
0.119662
0.115233
0.112059
0.0322511
2.82013e-06
2.14315e-06
0.00268319
0.0245414
0.0357123
0.00824782
0.00801962
0.00778106
0.00207212
0.0762787
0.0337174
0.00238404
0.0007882
0.036403
0.0621342
0.0991956
0.106082
0.0569925
2.13819e-06
2.1398e-06
2.30011e-06
0.000895882
0.0197032
0.0357476
0.0124412
0.012958
0.00697006
0.00629495
0.00314632
0.00016874
0.000787961
0.00166589
0.00134618
0.000699692
0.000153946
0.000115523
4.61483e-05
2.69043e-09
2.68468e-09
2.67823e-09
2.68464e-09
2.78263e-09
2.80354e-09
1.56887e-07
3.26954e-07
1.40297e-06
7.34412e-07
1.11039e-12
1.69096e-05
0.000111555
0.000145146
0.000333146
0.00014883
7.2379e-05
0.00120006
0.00181123
0.00160558
0.000657435
0.000247692
1.97127e-05
2.52397e-05
2.33572e-06
2.68464e-09
6.06605e-09
9.50278e-06
1.04698e-05
2.90226e-06
1.21979e-07
1.51681e-06
2.40716e-06
1.56595e-06
1.25333e-06
3.37039e-07
0.000348988
8.9761e-06
2.72801e-05
2.82725e-06
0.000129717
0.000652971
0.000456103
0.00029905
0.000276971
0.000277931
0.000201988
3.4269e-05
8.02102e-06
2.33047e-05
4.24481e-05
2.65891e-05
1.43159e-06
1.21763e-07
1.21754e-07
1.4331e-07
7.24371e-06
4.0139e-06
3.31205e-07
0.000101326
6.39009e-07
6.48176e-07
1.14826e-06
3.43277e-05
6.59761e-10
6.61027e-10
6.5996e-10
6.61089e-10
7.1927e-06
7.30478e-06
1.21173e-05
4.62176e-05
0.000110992
0.000101746
6.06477e-05
1.53029e-06
1.21753e-07
1.21747e-07
1.21736e-07
5.22977e-06
3.64458e-05
2.24835e-05
3.41885e-05
2.58493e-07
9.60094e-07
9.73905e-07
9.87918e-07
2.42782e-06
2.66464e-08
2.28574e-06
3.74621e-05
9.73794e-05
0.000127803
9.12133e-05
0.000176844
0.000193244
0.000193514
6.24401e-05
3.35408e-07
3.34637e-07
1.64005e-07
1.21726e-07
2.70873e-05
5.1188e-05
5.10089e-05
3.33777e-05
1.82504e-07
3.67959e-06
3.22783e-06
9.81132e-06
1.00495e-05
8.08157e-07
7.43633e-07
0.000164371
0.000259928
0.000259934
0.000238847
3.52755e-05
2.10267e-05
1.4297e-05
3.36812e-06
4.0495e-07
1.46198e-06
1.88474e-06
1.00109e-06
1.92515e-05
5.11923e-05
4.51734e-05
1.10562e-05
3.01944e-08
2.6738e-06
1.13771e-05
1.15802e-05
6.76386e-06
1.23341e-09
1.30748e-05
0.00024239
0.00025993
0.000259921
0.000244588
5.2145e-05
1.50098e-14
1.42378e-14
8.10282e-08
2.93341e-07
7.14322e-08
1.89464e-07
1.77104e-06
6.06222e-06
7.71236e-06
4.35471e-06
4.10756e-06
3.00531e-08
1.15917e-06
6.61994e-06
3.33208e-06
3.7252e-09
1.26482e-09
1.54711e-05
5.81824e-05
7.74825e-05
7.59699e-05
4.89078e-05
2.39968e-05
1.91515e-06
2.78601e-09
5.5043e-08
9.55894e-08
1.11226e-08
1.13946e-08
3.89612e-06
2.4126e-05
2.91641e-05
9.86507e-05
0.000348959
5.41889e-08
8.67729e-09
3.25086e-09
3.25849e-09
5.81835e-08
2.52492e-06
7.54577e-06
3.10766e-15
8.31092e-15
3.20285e-15
8.98251e-15
1.00637e-15
2.7499e-08
6.58264e-09
1.06665e-08
4.12774e-08
2.99184e-07
4.05267e-07
7.02857e-07
5.32655e-06
0.000522279
0.000902215
0.00090216
5.42069e-08
2.51487e-08
6.07646e-09
3.256e-09
4.95139e-09
7.11583e-08
4.34679e-08
4.42762e-08
1.60752e-08
5.81197e-08
1.07402e-07
8.70256e-08
6.10782e-09
3.02218e-09
2.54468e-09
2.06974e-09
3.38783e-07
1.15308e-06
6.48266e-07
6.95766e-05
0.000821821
0.00090216
0.000856293
6.319e-09
5.66618e-09
4.47142e-09
3.40554e-09
3.40599e-09
7.7836e-09
5.89992e-07
3.45079e-07
2.09912e-07
2.09728e-07
1.58938e-07
8.54973e-08
3.17869e-08
7.31458e-09
1.41552e-09
1.41554e-09
2.8053e-09
2.00276e-06
6.43244e-06
3.69379e-05
0.00025119
0.000284948
0.000100643
6.74815e-09
7.55071e-09
9.02804e-09
3.86675e-09
8.33716e-09
5.36302e-08
1.83248e-07
3.43828e-07
3.02231e-07
4.86837e-08
3.35181e-08
9.19728e-08
8.4999e-08
4.05817e-09
1.41547e-09
1.4114e-09
1.41324e-09
2.31078e-06
1.17649e-05
2.42942e-05
5.4859e-05
4.57742e-05
0.000167562
9.74279e-09
1.0716e-08
1.43764e-08
1.87806e-08
6.69965e-09
7.7435e-09
1.21532e-08
5.49397e-08
3.58588e-08
2.03568e-08
1.46682e-08
3.26798e-08
3.96097e-08
6.21002e-09
1.41375e-09
1.41345e-09
1.41109e-09
1.98554e-06
8.03302e-06
1.26274e-05
3.51512e-05
4.34496e-05
3.51191e-05
1.22164e-08
1.32318e-08
3.3466e-08
3.90686e-08
2.37921e-08
3.23748e-08
7.11463e-08
7.13377e-08
4.52677e-08
2.11197e-09
5.36447e-09
4.37282e-09
4.21053e-09
2.99013e-09
1.50108e-09
1.49625e-09
1.67213e-09
2.92777e-07
2.62155e-06
7.43088e-06
1.17671e-05
1.70826e-05
1.59438e-05
8.51959e-09
9.77413e-09
3.63265e-08
4.1387e-08
5.37141e-08
5.37788e-08
5.38241e-08
1.87905e-08
8.04332e-09
2.09854e-09
2.46867e-09
1.32655e-09
3.56391e-10
7.86319e-10
1.10629e-09
1.3707e-09
3.718e-09
6.29346e-09
5.21397e-09
3.55794e-07
8.70721e-09
3.69653e-08
3.89157e-06
5.30366e-09
1.84237e-09
7.38395e-09
1.92479e-08
2.54042e-08
2.05777e-08
5.01566e-09
2.71473e-11
4.03264e-11
8.21692e-10
8.40187e-10
5.09102e-10
1.61082e-10
3.08582e-10
4.60804e-10
8.34372e-10
3.20521e-09
5.23781e-09
5.1217e-09
3.49196e-09
8.36352e-09
1.67232e-08
1.14559e-08
4.37677e-09
2.98936e-10
2.97479e-10
7.14843e-10
6.77387e-10
1.83164e-10
2.59914e-11
2.71169e-11
6.37526e-11
2.06027e-10
2.02193e-10
1.52436e-10
7.41448e-11
1.39563e-10
2.09177e-10
3.53575e-10
1.26496e-09
3.6334e-09
4.10274e-09
3.1445e-09
1.17881e-08
1.99627e-08
1.1609e-08
4.42393e-09
5.91089e-10
1.89484e-10
1.61593e-10
1.1843e-10
5.48137e-11
2.59086e-11
2.05281e-11
2.45287e-11
4.48078e-11
4.71431e-11
4.35532e-11
3.62838e-11
5.9324e-11
1.01682e-10
1.68194e-10
3.29298e-10
6.20416e-10
1.17773e-09
2.17839e-09
5.99361e-09
9.88816e-09
4.78126e-09
4.76871e-09
7.18546e-10
1.8994e-10
1.31565e-10
7.8559e-11
3.44652e-11
1.8203e-11
9.09969e-12
6.24624e-12
1.02164e-11
1.274e-11
1.40664e-11
1.56715e-11
2.44143e-11
4.15752e-11
7.90706e-11
1.21896e-10
1.89204e-10
3.72242e-10
7.23718e-10
1.91725e-09
2.02125e-09
8.04581e-10
5.28811e-09
7.15219e-10
1.97586e-10
1.28143e-10
5.96549e-11
2.34361e-11
9.54721e-12
4.12519e-12
2.31266e-12
2.94446e-12
3.25848e-12
4.03997e-12
5.55207e-12
8.65117e-12
1.50704e-11
2.88411e-11
4.99406e-11
7.93526e-11
1.29553e-10
2.40944e-10
3.36855e-10
2.7188e-10
1.93001e-10
5.60042e-09
7.2085e-10
1.99043e-10
1.23306e-10
5.24694e-11
1.8083e-11
7.69046e-12
3.77958e-12
1.58031e-12
8.57807e-13
8.65553e-13
9.99825e-13
1.51956e-12
2.46672e-12
4.41409e-12
8.0526e-12
1.55031e-11
2.54803e-11
4.05656e-11
8.04525e-11
8.31005e-11
9.46546e-11
1.11291e-10
6.35673e-09
7.44495e-10
1.81562e-10
1.12472e-10
4.71452e-11
1.79013e-11
9.63867e-12
3.70208e-12
1.61528e-12
6.24199e-13
3.28732e-13
2.4759e-13
3.24594e-13
5.59739e-13
1.02339e-12
1.88626e-12
3.69656e-12
6.66517e-12
1.10583e-11
2.20291e-11
2.76642e-11
3.20589e-11
4.9895e-11
7.07537e-09
9.27183e-10
1.39699e-10
1.09813e-10
5.50321e-11
2.73159e-11
1.37711e-11
4.13678e-12
1.7288e-12
6.24244e-13
2.21919e-13
9.70151e-14
7.08161e-14
1.02248e-13
1.88873e-13
3.67345e-13
6.8855e-13
1.30688e-12
2.30265e-12
4.73441e-12
6.21245e-12
1.04434e-11
2.0404e-11
7.7036e-09
1.23146e-09
1.2671e-10
1.20954e-10
8.13668e-11
4.70205e-11
1.86205e-11
4.92828e-12
1.89522e-12
6.43231e-13
2.06268e-13
7.03725e-14
2.83881e-14
1.97704e-14
2.90144e-14
5.73782e-14
1.11377e-13
2.23312e-13
4.40419e-13
9.00194e-13
1.55146e-12
2.55605e-12
6.21769e-12
1.12481e-08
1.91997e-09
1.26328e-10
1.38254e-10
1.29752e-10
7.854e-11
2.64526e-11
6.04417e-12
2.16092e-12
6.73531e-13
1.97045e-13
6.21625e-14
2.09831e-14
7.76334e-15
5.01951e-15
7.36873e-15
1.52462e-14
3.20571e-14
7.27633e-14
1.59053e-13
2.58228e-13
5.55735e-13
1.54928e-12
1.52085e-08
3.16114e-09
1.26293e-10
1.60785e-10
1.90344e-10
1.18236e-10
3.74831e-11
7.9357e-12
2.61189e-12
7.33746e-13
1.87921e-13
5.47832e-14
1.72851e-14
5.48781e-15
1.93328e-15
1.14218e-15
1.75843e-15
3.96718e-15
9.1873e-15
2.49668e-14
4.91436e-14
8.66548e-14
2.94156e-13
1.52092e-08
5.43511e-09
1.26328e-10
1.76006e-10
2.51587e-10
1.66619e-10
5.1251e-11
1.13001e-11
3.30876e-12
8.78354e-13
1.90504e-13
4.76492e-14
1.36494e-14
4.13583e-15
1.27086e-15
4.25088e-16
2.50726e-16
4.34153e-16
1.03515e-15
3.13733e-15
5.74642e-15
1.07306e-14
4.61074e-14
1.52098e-08
8.79226e-09
4.69662e-10
2.009e-10
3.53905e-10
2.37741e-10
7.20223e-11
1.79264e-11
4.6876e-12
1.14421e-12
2.30051e-13
4.58408e-14
1.04126e-14
2.91709e-15
8.67924e-16
2.50732e-16
8.02286e-17
5.30079e-17
9.80123e-17
3.24142e-16
7.47409e-16
1.21802e-15
5.92143e-15
1.40739e-08
1.61774e-08
3.67519e-09
5.39227e-10
4.29882e-10
3.68674e-10
1.32016e-10
3.36176e-11
7.36528e-12
1.72919e-12
3.43617e-13
5.74818e-14
9.48504e-15
2.08781e-15
5.42167e-16
1.52533e-16
4.11517e-17
1.27892e-17
1.05633e-17
2.96761e-17
5.76557e-17
1.15014e-16
6.79687e-16
1.19223e-08
1.6629e-08
9.85889e-09
1.60911e-09
6.21469e-10
5.60581e-10
2.69375e-10
8.0381e-11
1.43172e-11
3.01475e-12
6.2739e-13
1.13042e-13
1.59733e-14
2.20866e-15
3.93241e-16
8.5368e-17
2.12525e-17
5.20085e-18
1.6866e-18
2.54717e-18
4.41542e-18
1.01603e-17
6.29746e-17
7.15464e-09
1.59458e-08
1.04804e-08
3.20157e-09
1.03003e-09
1.01508e-09
4.7242e-10
1.5151e-10
3.13787e-11
6.37871e-12
1.51028e-12
3.08867e-13
5.24477e-14
6.91658e-15
7.59357e-16
8.84931e-17
1.29792e-17
2.38904e-18
4.72597e-19
2.58142e-19
3.41521e-19
9.16007e-19
5.64684e-18
2.17868e-09
6.95921e-09
9.01579e-09
5.46378e-09
2.10073e-09
1.36302e-09
6.92787e-10
2.52623e-10
4.63248e-11
1.09368e-11
3.46262e-12
8.25508e-13
1.79617e-13
2.90496e-14
3.61685e-15
3.65641e-16
3.26129e-17
2.54686e-18
2.78593e-19
4.3359e-20
3.25113e-20
8.87869e-20
5.84103e-19
1.56288e-09
4.54339e-09
8.14075e-09
6.44076e-09
3.81548e-09
1.8583e-09
7.80077e-10
2.95013e-10
8.7991e-11
2.32872e-11
7.65884e-12
2.07577e-12
4.2832e-13
8.39269e-14
1.26402e-14
1.49809e-15
1.30741e-16
1.10015e-17
6.97494e-19
5.03922e-20
5.80942e-21
8.75256e-21
7.1734e-20
1.56259e-09
2.68995e-09
5.50951e-09
6.16948e-09
4.39323e-09
2.17307e-09
7.2208e-10
3.11014e-10
1.54927e-10
4.93705e-11
1.56262e-11
4.34877e-12
9.53495e-13
1.88807e-13
3.0038e-14
4.09971e-15
4.32565e-16
3.8141e-17
2.37714e-18
1.332e-19
7.15076e-21
1.56071e-21
9.18567e-21
1.5575e-09
2.4263e-09
4.39072e-09
4.98375e-09
3.88898e-09
2.01517e-09
6.20535e-10
3.69178e-10
1.80966e-10
5.68333e-11
2.14423e-11
6.71321e-12
1.62262e-12
3.35437e-13
6.13005e-14
8.70353e-15
9.32771e-16
8.09388e-17
5.91469e-18
3.37377e-19
2.04295e-20
1.18661e-21
1.15631e-21
1.52911e-09
1.7464e-09
3.06975e-09
3.81104e-09
3.41604e-09
1.76359e-09
6.21732e-10
3.27681e-10
1.54936e-10
6.86797e-11
2.79653e-11
8.6061e-12
2.2429e-12
5.0623e-13
8.56636e-14
1.2093e-14
1.36401e-15
1.16011e-16
8.71197e-18
5.20099e-19
2.65385e-20
1.26107e-21
1.20544e-22
1.41211e-09
1.4251e-09
2.20291e-09
2.76351e-09
2.33182e-09
1.17648e-09
6.21993e-10
3.58774e-10
1.87429e-10
8.84799e-11
3.25102e-11
9.64465e-12
2.34082e-12
4.56655e-13
7.21961e-14
9.31784e-15
9.87374e-16
7.94037e-17
5.87998e-18
3.6008e-19
1.82481e-20
7.31043e-22
2.58059e-23
1.01582e-09
1.42472e-09
1.57908e-09
1.52218e-09
1.26889e-09
9.22584e-10
6.14777e-10
3.59133e-10
1.74845e-10
6.56349e-11
1.99288e-11
4.96578e-12
1.04893e-12
1.78135e-13
2.48567e-14
2.81983e-15
2.76662e-16
2.12464e-17
1.51704e-18
8.09826e-20
3.3415e-21
1.5127e-22
5.50512e-24
4.11223e-10
1.37084e-09
1.41207e-09
1.30294e-09
1.15054e-09
8.99432e-10
5.45218e-10
2.61666e-10
9.2913e-11
2.61258e-11
6.16387e-12
1.12842e-12
1.96898e-13
2.91171e-14
3.61246e-15
4.03181e-16
3.82584e-17
2.82894e-18
1.93092e-19
1.05286e-20
4.62907e-22
1.60526e-23
5.16445e-25
1.13523e-10
1.01027e-09
1.28662e-09
1.21244e-09
1.07246e-09
7.45799e-10
3.06718e-10
1.08295e-10
2.95066e-11
6.12344e-12
1.02159e-12
1.68604e-13
2.28112e-14
3.06364e-15
3.56716e-16
3.3688e-17
2.99495e-18
2.34854e-19
1.53039e-20
7.60494e-22
3.25282e-23
1.05734e-24
3.1705e-26
3.40978e-11
3.60874e-10
8.64159e-10
8.66273e-10
6.73315e-10
3.11394e-10
1.10772e-10
2.96295e-11
6.02715e-12
1.08804e-12
1.5815e-13
1.87331e-14
2.06763e-15
2.16247e-16
2.30415e-17
2.19019e-18
1.81424e-19
1.33754e-20
8.18184e-22
3.9991e-23
1.58576e-24
4.64597e-26
1.50242e-27
7.12774e-12
8.88703e-11
2.88111e-10
2.82974e-10
1.95615e-10
7.16708e-11
2.53745e-11
6.2988e-12
1.22885e-12
1.71656e-13
1.91167e-14
1.86468e-15
1.69663e-16
1.47503e-17
1.28344e-18
1.0828e-19
8.2387e-21
5.60334e-22
3.21316e-23
1.49813e-24
5.54288e-26
1.46914e-27
7.33639e-29
0.00051885
0.0148993
0.0394405
0.0393201
0.00143726
0.00148005
4.95099e-05
4.92785e-05
0.000771849
0.000663004
0.000167643
0.000220017
0.00010375
8.45332e-05
8.57485e-05
0.000557847
3.78681e-06
-7.35157e-11
0.000126068
0.000763047
7.26927e-11
-5.30686e-19
0.000156912
0.000997865
4.34021e-05
7.83021e-05
0.000233034
0.000606344
0.000326535
8.36579e-05
9.50965e-05
0.000106142
0.000901974
0.000848988
0.00036403
0.00014062
0.000545972
0.000807566
0.000791814
0.000632436
5.67742e-05
4.96054e-05
4.98387e-05
0.00180784
0.000504933
0.000847051
0.00122538
0.00166879
1.57063e-05
2.11813e-06
2.10776e-06
2.09346e-06
2.81737e-05
3.05692e-05
3.05757e-05
2.9976e-05
9.21013e-06
1.50154e-05
1.52826e-05
2.99463e-05
1.13242e-06
1.25888e-06
1.65528e-06
2.16061e-06
1.53345e-09
4.81781e-09
9.54643e-10
9.56952e-10
1.51863e-09
1.62924e-09
3.14483e-09
3.35668e-09
4.40949e-10
7.01604e-10
1.20829e-09
1.97244e-09
2.26874e-10
3.24946e-10
5.46167e-10
8.20938e-10
1.47592e-10
2.26387e-10
2.91957e-10
4.85948e-10
8.10925e-11
1.07995e-10
1.61262e-10
2.18608e-10
3.1176e-11
4.46814e-11
6.25616e-11
8.61068e-11
9.08466e-12
1.18508e-11
1.9372e-11
2.7794e-11
2.18056e-12
3.09305e-12
4.61322e-12
7.67972e-12
4.53588e-13
5.73514e-13
1.044e-12
1.77787e-12
8.12673e-14
1.10187e-13
1.7941e-13
3.46951e-13
9.62505e-15
1.21179e-14
2.60183e-14
5.03207e-14
1.07865e-15
1.52044e-15
2.84267e-15
6.63134e-15
1.13936e-16
1.46498e-16
3.36241e-16
7.54155e-16
1.33416e-17
2.18826e-17
4.60274e-17
1.0879e-16
1.75911e-18
3.31709e-18
1.12906e-17
3.03078e-17
2.20826e-19
9.27438e-19
3.59007e-18
1.13547e-17
4.77393e-20
1.74413e-19
9.1941e-19
3.4605e-18
5.96547e-21
3.10987e-20
1.72692e-19
7.05007e-19
8.10176e-22
4.40975e-21
2.39716e-20
1.18891e-19
8.76716e-23
4.60475e-22
3.12472e-21
1.61634e-20
9.72191e-24
5.93192e-23
3.04209e-22
1.8253e-21
6.71381e-25
4.86536e-24
3.14121e-23
1.45279e-22
6.68408e-26
4.78629e-25
2.25423e-24
1.22083e-23
6.37089e-27
4.49485e-26
2.1627e-25
1.01501e-24
5.88492e-28
3.7457e-27
1.8632e-26
7.72429e-26
0.00216152
0.00860149
0.000224982
0.000812178
0.0271921
0.0495106
0.0174503
0.00358791
0.000474512
2.13844e-06
8.71654e-06
9.58307e-06
3.78651e-06
0.00670467
0.0226477
0.0226193
0.0140537
0.00702275
0.00713145
4.94174e-05
4.93383e-05
0.000218289
0.000134387
1.7382e-05
1.73623e-05
0.000246817
8.07247e-07
8.1488e-07
1.30458e-05
1.71766e-05
6.42283e-06
3.69198e-06
0.00279298
0.0196487
0.0148477
0.0130639
0.0242454
0.0125616
0.000154706
4.95745e-05
0.000170633
0.000178609
3.19036e-05
3.69869e-05
3.68163e-06
3.806e-06
1.36553e-05
1.30357e-05
4.44446e-05
1.64613e-05
7.32444e-05
0.00490378
0.00868609
0.00869085
0.0238092
0.0350853
0.0137656
0.000883385
0.000477892
0.0011799
0.00223648
0.00341501
0.00322797
0.000341766
1.29411e-05
0.000298258
0.00198703
0.00248054
0.00113846
0.000612632
0.00150004
0.001477
0.0101519
0.0350004
0.0350853
0.0140033
0.00100025
0.000998792
0.000956337
0.00346872
0.00513539
0.00513267
0.00415878
0.00217374
0.00447473
0.00800016
0.0077717
0.00148454
0.000490583
0.00049075
0.00160265
0.0128765
0.034969
0.0350853
0.0140497
0.000998792
0.000849963
0.00013686
0.00151677
0.00359438
0.00459194
0.00351255
0.00474306
0.00796073
0.00801199
0.00746778
0.00165058
0.00169045
0.00454707
0.0194066
0.0308304
0.0306534
0.0339421
0.0137271
0.000665915
0.000226271
0.000131176
0.000660624
0.000987743
0.000953768
0.00101118
0.00124079
0.00257244
0.00337251
0.0013699
0.000909978
0.00592314
0.015924
0.0156704
0.00944464
0.00509545
0.00457053
0.0261885
0.000105579
0.000105949
0.000313965
0.00044499
0.000385439
0.000408363
0.000706228
0.00169751
0.00207071
0.00147701
0.000941706
0.000916591
0.00278925
0.000976431
0.000966937
0.00102253
0.000964047
0.00178828
0.0301277
9.82324e-05
0.000110347
0.000248824
0.000265993
0.000749504
0.0020729
0.00648759
0.00934149
0.0105893
0.00721625
0.00398282
0.00199462
0.00108226
0.00100194
0.0010233
0.00201311
0.00096515
0.00428115
0.0199065
0.000527129
0.000753091
0.000794046
0.00134233
0.00945987
0.0203236
0.0209507
0.0209458
0.0209508
0.0209458
0.0146311
0.00878664
0.00847495
0.0096508
0.00987516
0.00820329
0.00877868
0.00566258
0.00461344
0.00946675
0.0218241
0.0218208
0.0218244
0.0208652
0.0152956
0.0131003
0.0121916
0.0115194
0.0108393
0.0109845
0.0112402
0.0125334
0.0136765
0.0136968
0.0136939
0.0136632
0.0129669
0.00657061
0.00297631
0.00489184
0.00545989
0.00309139
0.000308272
5.31404e-08
8.68552e-08
2.28862e-07
2.39953e-07
2.80425e-07
2.8954e-07
5.16498e-05
0.000584199
0.00278442
0.00505738
0.0074116
0.0096706
0.0107723
0.00994781
2.08273e-06
2.06872e-06
3.08975e-06
1.65649e-06
9.34857e-08
1.03451e-07
5.92383e-08
5.86367e-08
3.51608e-06
1.14232e-05
1.50836e-05
8.23329e-06
9.86216e-13
5.0167e-13
2.32684e-24
3.44785e-06
2.04531e-06
3.37046e-06
0.000255285
1.10422e-05
2.68566e-05
8.09068e-05
3.70496e-05
9.06243e-08
7.79182e-07
3.08392e-07
1.55459e-07
3.45649e-06
3.93875e-05
6.06298e-05
6.12856e-05
3.23111e-05
1.99691e-06
-6.27647e-13
5.28418e-26
5.76913e-27
-1.71297e-26
-1.70859e-27
2.10684e-05
5.55015e-06
1.46532e-05
1.4931e-05
9.04956e-06
1.15749e-06
1.02146e-07
2.96865e-07
8.93114e-08
2.33302e-07
4.64383e-05
6.7493e-05
6.35145e-05
7.0137e-06
-6.66427e-12
1.164e-08
1.32049e-08
5.5575e-09
3.36665e-09
2.57875e-06
4.70714e-06
5.52959e-06
2.85305e-06
4.22336e-07
1.19521e-07
8.54516e-08
8.55131e-08
8.48007e-08
8.44127e-08
8.43195e-08
3.70184e-05
2.5371e-05
5.89301e-06
-3.23321e-11
4.19265e-08
2.90868e-08
8.92287e-09
5.46893e-09
9.55023e-10
2.11995e-06
6.33122e-06
7.81953e-06
5.21952e-06
3.74054e-07
8.54913e-08
8.54438e-08
8.48022e-08
8.48013e-08
8.48938e-08
8.51913e-08
8.53782e-08
2.57636e-07
1.44038e-07
4.78015e-08
6.61299e-09
2.95464e-09
4.81026e-09
1.55284e-09
6.89057e-10
3.97901e-06
8.61513e-06
8.79133e-06
9.09952e-06
7.15327e-06
2.73193e-06
1.62963e-07
8.567e-08
5.79782e-07
3.43099e-06
2.23839e-06
2.95185e-08
7.42839e-10
2.82941e-09
1.11307e-10
4.86e-10
3.10666e-09
1.31176e-09
6.85871e-10
3.54215e-07
1.46241e-06
2.77775e-06
1.98635e-05
2.19535e-05
2.19854e-05
1.1961e-05
3.12435e-06
1.01886e-05
1.92784e-05
1.07461e-05
1.80609e-08
7.48152e-11
7.72227e-11
1.12638e-10
7.04568e-10
2.98108e-09
6.56855e-10
6.7951e-10
8.39501e-08
1.05055e-10
9.84744e-11
5.92053e-06
2.02312e-05
2.19468e-05
2.1971e-05
2.19716e-05
2.1805e-05
1.93663e-05
6.58492e-06
2.67038e-10
2.7098e-10
2.63537e-10
2.94912e-10
1.1436e-09
3.52758e-09
6.52532e-10
6.68911e-10
2.86409e-10
1.9995e-10
1.00475e-10
8.46129e-11
5.43042e-10
5.76041e-06
1.23813e-05
1.38554e-05
1.16417e-05
2.35823e-06
2.86448e-10
5.47936e-10
5.64469e-10
4.04728e-10
3.73149e-10
1.34118e-09
3.9005e-09
3.00728e-10
3.81906e-10
3.48421e-10
2.84369e-10
1.22029e-10
8.32979e-11
8.34332e-11
8.29842e-11
7.69527e-11
7.39708e-11
7.36494e-11
7.3322e-11
2.84402e-10
4.84928e-10
3.80281e-10
2.53144e-10
3.32079e-10
1.51921e-09
3.97409e-09
1.13489e-10
1.35701e-10
1.47985e-10
1.47658e-10
1.12633e-10
1.0401e-10
1.0413e-10
8.50829e-11
7.61797e-11
7.42688e-11
7.52035e-11
7.21956e-11
7.18301e-11
8.05086e-11
8.61809e-11
1.0299e-10
2.76826e-10
1.63305e-09
3.994e-09
3.8139e-11
4.47305e-11
5.17349e-11
5.5648e-11
6.20502e-11
1.21627e-10
1.85215e-10
1.47119e-10
1.20377e-10
9.59467e-11
8.79524e-11
7.33333e-11
5.72693e-11
4.81962e-11
4.87741e-11
7.44943e-11
2.57838e-10
1.86305e-09
3.99194e-09
1.12478e-11
1.35841e-11
1.5548e-11
1.95119e-11
2.20767e-11
2.85918e-11
4.81481e-11
5.92601e-11
6.17657e-11
5.32806e-11
3.83858e-11
3.04177e-11
2.30026e-11
2.01474e-11
2.45773e-11
5.75163e-11
2.30156e-10
2.38362e-09
3.4981e-09
2.87998e-12
3.63197e-12
4.56963e-12
5.49898e-12
7.16717e-12
8.02055e-12
8.64349e-12
1.05032e-11
1.27311e-11
1.29562e-11
1.25478e-11
1.02606e-11
8.3281e-12
8.84337e-12
1.57025e-11
4.92629e-11
2.30021e-10
2.61109e-09
2.73512e-09
5.59813e-13
8.0694e-13
1.1992e-12
1.53206e-12
1.8443e-12
2.13552e-12
2.389e-12
2.40464e-12
3.05806e-12
3.26579e-12
3.31646e-12
3.36749e-12
3.60753e-12
5.08252e-12
1.24893e-11
4.51535e-11
2.65906e-10
2.68814e-09
2.20645e-09
8.96609e-14
1.474e-13
2.52012e-13
3.74682e-13
4.96008e-13
5.82121e-13
6.39617e-13
7.39611e-13
8.50892e-13
1.00105e-12
1.1974e-12
1.53485e-12
2.25069e-12
4.83146e-12
1.34755e-11
5.43575e-11
3.38012e-10
2.69025e-09
2.02704e-09
1.17877e-14
2.24487e-14
4.3612e-14
7.56596e-14
1.14171e-13
1.49576e-13
1.76656e-13
2.16402e-13
2.97807e-13
4.7005e-13
8.00474e-13
1.36275e-12
2.73353e-12
7.14162e-12
1.98337e-11
7.49322e-11
4.96308e-10
2.55092e-09
1.7806e-09
1.49549e-15
3.13908e-15
6.8688e-15
1.35059e-14
2.49372e-14
4.17728e-14
7.02363e-14
1.22198e-13
2.52149e-13
5.22129e-13
1.04858e-12
1.97982e-12
4.61525e-12
1.13345e-11
3.507e-11
1.17789e-10
8.23277e-10
2.37484e-09
1.52096e-09
2.44632e-16
6.60544e-16
1.79489e-15
4.61006e-15
1.10433e-14
2.69527e-14
6.31301e-14
1.54494e-13
3.47797e-13
7.70393e-13
1.63053e-12
3.36816e-12
8.2572e-12
2.17382e-11
6.85964e-11
2.49796e-10
1.03929e-09
2.2933e-09
1.13969e-09
9.37331e-17
3.32233e-16
1.0863e-15
3.47113e-15
1.00172e-14
2.73655e-14
7.26562e-14
1.85246e-13
4.51568e-13
1.05108e-12
2.35977e-12
5.51914e-12
1.34377e-11
3.59046e-11
1.21158e-10
3.91758e-10
1.15077e-09
1.87793e-09
7.9483e-10
3.92776e-17
1.6717e-16
6.28992e-16
2.30213e-15
7.47171e-15
2.23149e-14
6.31348e-14
1.72243e-13
4.41979e-13
1.07652e-12
2.54184e-12
5.90806e-12
1.49707e-11
4.27991e-11
1.54621e-10
4.62578e-10
1.13019e-09
1.43914e-09
6.1939e-10
1.29724e-17
6.31436e-17
2.69433e-16
1.06133e-15
3.89787e-15
1.28831e-14
3.90696e-14
1.16099e-13
3.2095e-13
8.32671e-13
2.1075e-12
5.24751e-12
1.35218e-11
4.01013e-11
1.47157e-10
4.6358e-10
9.50872e-10
9.97688e-10
4.41587e-10
2.99637e-18
1.63077e-17
8.047e-17
3.57206e-16
1.52492e-15
5.7081e-15
1.82282e-14
5.79529e-14
1.70069e-13
4.82415e-13
1.31966e-12
3.57926e-12
9.90422e-12
2.63108e-11
9.10546e-11
3.13467e-10
6.79067e-10
7.40477e-10
2.30549e-10
5.33542e-19
3.2514e-18
1.80208e-17
9.39892e-17
4.24851e-16
1.67975e-15
6.00684e-15
2.0624e-14
6.73042e-14
2.09324e-13
6.4157e-13
1.90724e-12
5.67809e-12
1.65456e-11
4.24043e-11
1.40362e-10
4.27071e-10
4.33413e-10
1.36017e-10
7.50778e-20
4.94641e-19
3.10843e-18
1.76711e-17
8.65564e-17
3.55175e-16
1.40115e-15
5.38778e-15
1.96977e-14
7.07171e-14
2.50394e-13
8.4123e-13
2.69454e-12
7.9641e-12
2.11009e-11
5.41257e-11
1.45279e-10
2.4606e-10
8.16887e-11
7.87577e-21
5.79655e-20
3.81251e-19
2.29989e-18
1.20373e-17
5.547e-17
2.5063e-16
1.06591e-15
4.42293e-15
1.82584e-14
7.52407e-14
2.99147e-13
1.09235e-12
3.57609e-12
9.85668e-12
2.18418e-11
4.78429e-11
1.00148e-10
4.36127e-11
7.28984e-22
4.98961e-21
2.88075e-20
1.52644e-19
7.89672e-19
4.04984e-18
2.19781e-17
1.31256e-16
7.32231e-16
3.78234e-15
1.84617e-14
8.73529e-14
3.67325e-13
1.31502e-12
3.87472e-12
9.84943e-12
1.70669e-11
4.38899e-11
2.14915e-11
5.30691e-23
3.1066e-22
1.65249e-21
9.44536e-21
5.94142e-20
3.86361e-19
2.49679e-18
1.61165e-17
1.07685e-16
6.79895e-16
4.10819e-15
2.36111e-14
1.13111e-13
4.15569e-13
1.23593e-12
3.11756e-12
6.80938e-12
1.28456e-11
1.25599e-11
3.40533e-24
1.57775e-23
7.05962e-23
4.16466e-22
3.21173e-21
2.6257e-20
2.20833e-19
1.81578e-18
1.53003e-17
1.24233e-16
9.79843e-16
6.41548e-15
3.26622e-14
1.29725e-13
4.15865e-13
1.03054e-12
1.7356e-12
5.72867e-12
5.9073e-12
1.94432e-25
6.35656e-25
2.31959e-24
1.50649e-23
1.51395e-22
1.66404e-21
1.7917e-20
1.90834e-19
2.01757e-18
1.88628e-17
1.50045e-16
9.57222e-16
5.59242e-15
2.39817e-14
8.16011e-14
2.12872e-13
5.11702e-13
1.11128e-12
8.90416e-13
)
;

boundaryField
{
    leftWall
    {
        type            zeroGradient;
    }
    rightWall
    {
        type            zeroGradient;
    }
    lowerWall
    {
        type            zeroGradient;
    }
    atmosphere
    {
        type            inletOutlet;
        inletValue      uniform 0;
        value           nonuniform List<scalar> 
46
(
7.12774e-12
8.88703e-11
2.88111e-10
2.82974e-10
1.95615e-10
7.16708e-11
2.53745e-11
6.2988e-12
1.22885e-12
1.71656e-13
1.91167e-14
1.86468e-15
1.69663e-16
1.47503e-17
1.28344e-18
1.0828e-19
8.2387e-21
5.60334e-22
3.21316e-23
1.49813e-24
5.54288e-26
1.46914e-27
7.33639e-29
5.88492e-28
3.7457e-27
1.8632e-26
7.72429e-26
0
0
0
0
0
0
0
0
0
0
0
0
0
0
0
0
0
0
0
)
;
    }
    defaultFaces
    {
        type            empty;
    }
}


// ************************************************************************* //
