/*--------------------------------*- C++ -*----------------------------------*\
| =========                 |                                                 |
| \\      /  F ield         | OpenFOAM: The Open Source CFD Toolbox           |
|  \\    /   O peration     | Version:  2312                                  |
|   \\  /    A nd           | Website:  www.openfoam.com                      |
|    \\/     M anipulation  |                                                 |
\*---------------------------------------------------------------------------*/
FoamFile
{
    version     2.0;
    format      ascii;
    arch        "LSB;label=32;scalar=64";
    class       volScalarField;
    location    "1.9";
    object      alpha.water_0;
}
// * * * * * * * * * * * * * * * * * * * * * * * * * * * * * * * * * * * * * //

dimensions      [0 0 0 0 0 0 0];

internalField   nonuniform List<scalar> 
2268
(
7.55497e-10
4.56112e-10
1.71075e-10
6.48489e-11
3.82105e-11
3.01166e-11
2.79852e-11
2.6799e-11
2.62414e-11
2.61365e-11
2.65353e-11
2.82332e-11
3.16796e-11
3.86544e-11
4.83975e-11
6.57573e-11
9.85843e-11
1.59967e-10
2.62119e-10
4.44395e-10
7.26889e-10
9.45833e-10
1.10684e-09
9.38571e-10
7.26087e-10
3.11103e-10
1.30417e-10
8.31169e-11
5.46552e-11
4.56151e-11
4.11347e-11
4.04646e-11
4.06925e-11
4.06146e-11
4.25592e-11
5.33386e-11
6.30184e-11
8.40395e-11
1.3284e-10
2.15256e-10
3.76709e-10
7.16592e-10
1.26048e-09
1.98636e-09
2.30729e-09
2.32567e-09
7.28741e-10
7.05129e-10
3.75595e-10
1.98734e-10
1.18509e-10
9.33467e-11
7.68873e-11
6.69921e-11
6.07866e-11
5.33757e-11
4.67936e-11
4.5723e-11
5.41889e-11
7.36186e-11
9.06591e-11
1.43846e-10
2.6035e-10
4.85537e-10
7.16169e-10
1.04856e-09
1.42597e-09
2.61029e-09
2.65472e-09
3.84224e-11
3.17585e-11
3.19614e-11
7.38595e-11
6.55002e-11
6.92103e-11
1.08717e-10
1.14157e-10
4.78577e-11
4.07464e-11
3.70541e-11
3.70155e-11
4.42877e-11
6.25309e-11
9.61408e-11
1.43829e-10
1.82033e-10
1.54778e-10
1.55075e-10
1.55373e-10
6.65642e-09
6.09388e-09
2.65537e-09
1.47878e-05
0.00131019
3.85003e-09
3.68297e-14
1.30439e-26
-2.72911e-15
2.51083e-12
9.33345e-13
7.84027e-12
1.08623e-11
1.70174e-11
1.76143e-11
1.97061e-11
3.00254e-11
4.03448e-10
2.40615e-11
2.46283e-11
2.40617e-11
0.00240862
0.0187864
0.0416616
0.0650198
0.0974967
0.273291
0.268527
0.206478
0.129593
0.0597963
0.0117422
6.47017e-28
-7.09629e-13
-4.13859e-12
1.22827e-20
-1.21597e-20
1.74993e-19
-3.93308e-20
8.91672e-10
0.0138984
0.0688246
0.17057
0.315657
0.491913
0.627135
0.708979
0.762287
0.803534
0.11289
0.619725
0.886615
0.827385
0.722864
0.601482
0.493019
0.420575
0.351791
0.273101
0.228588
0.222473
0.265545
0.400803
0.608032
0.78837
0.912468
0.98641
0.998344
0.997739
0.996788
0.989967
0.98669
0.0736895
0.690033
0.997405
0.99826
0.998258
0.998249
0.994645
0.986507
0.976789
0.963965
0.93924
0.932956
0.956219
0.99933
0.99933
0.999276
0.999201
0.999195
0.998915
0.996842
0.996198
0.995838
0.986324
0.0874072
0.041593
0.0320789
0.0326748
0.0332382
0.0277626
0.0268152
0.0256145
0.0256121
0.0245474
0.023753
0.0267872
0.0267872
0.0267841
0.0256338
0.0251671
0.0251641
0.0238362
0.0176924
0.0874268
0.0361711
0.0423441
0.0870886
0.0819888
0.0550604
0.0979233
0.163529
0.217268
0.165912
0.0086212
0.00861798
0.00862159
0.0085415
0.0107435
0.0369199
0.0402702
0.0113785
0.0113882
0.0455609
0.0197812
0.0198011
0.020561
0.0271991
0.0772306
0.119862
0.278332
0.408634
0.408877
0.383182
0.104928
0.0188352
0.00853887
0.00860664
0.0424517
0.108096
0.110293
0.0113974
0.0727836
0.307639
0.579694
0.4327
0.322093
0.362549
0.351293
0.22624
0.208954
0.379838
0.383631
0.170012
0.122254
0.0736102
0.135655
0.185123
0.271449
0.381285
0.190917
0.630376
0.840628
0.841084
0.828722
0.791652
0.750254
0.75566
0.323192
0.126996
0.135241
0.142991
0.189963
0.140811
0.192268
0.401139
0.542737
0.852262
0.889638
0.531725
0.748719
0.696228
0.404444
0.304112
0.556648
0.750071
0.755355
0.338406
0.127135
0.127073
0.277847
0.422068
0.359412
0.330498
0.730912
0.88779
0.901115
0.901118
0.687056
0.643542
0.341391
0.161472
0.19925
0.613888
0.750107
0.412251
0.130485
0.132001
0.280668
0.811461
0.948726
0.823171
0.683295
0.848689
0.90111
0.901115
0.901121
0.901127
0.253604
0.130052
0.280593
0.967561
0.934857
0.602197
0.134748
0.13038
0.396031
0.847089
0.999973
0.999973
0.987712
0.895139
0.83704
0.863454
0.791682
0.884397
0.901112
0.0102316
0.179934
0.837205
0.994789
0.989527
0.989794
0.992953
0.999132
0.999129
0.999108
0.999053
0.99914
0.999252
0.99933
0.99933
0.998548
0.992595
0.989113
0.97528
0.983864
0.986447
0.984816
0.986285
0.000810555
0.0051158
0.0880975
0.357726
0.393142
0.458949
0.566677
0.817692
0.905904
0.914161
0.943892
0.953296
0.942356
0.893001
0.825095
0.741599
0.638812
0.523378
0.408641
0.357364
0.420769
0.603449
0.789356
2.74844e-05
1.16674e-05
1.16671e-05
0.000501383
4.48997e-05
0.00171565
0.0130691
0.012859
0.0250794
0.0775081
0.293003
0.384715
0.332857
0.228836
0.130624
0.0601172
0.000957929
1.46152e-06
0.000671732
0.00454239
0.0136727
0.0302513
0.106439
1.16674e-05
1.16666e-05
4.07275e-05
0.000553475
4.50971e-05
0.000236
1.06989e-05
4.24162e-09
4.46206e-09
1.66054e-09
1.3984e-09
1.40027e-09
1.44037e-09
1.64109e-09
1.45061e-21
-1.14157e-09
2.10725e-05
1.78705e-06
4.16956e-07
0.000485981
0.000508669
0.00252819
0.0129312
1.2297e-05
1.16696e-05
8.09028e-05
0.000212437
1.22686e-05
1.64189e-06
1.64157e-06
0.000284166
0.000258087
0.000208422
0.000193996
0.000189226
0.000665074
0.000998654
0.000969231
0.000945627
0.000844978
0.000200737
2.77493e-07
0.00146003
0.0079644
0.00910289
0.0073637
4.03e-05
1.38899e-05
3.47566e-05
1.67122e-05
1.3094e-05
1.75368e-06
1.64189e-06
0.001261
0.00359399
0.00376033
0.00358701
0.00429873
0.00603138
0.00603356
0.0019684
0.00056879
0.000332737
0.000669528
0.000954155
0.00197953
0.00839071
0.00912288
0.00481381
4.23379e-05
3.0642e-05
2.87069e-05
3.07438e-05
3.05834e-05
7.14719e-06
1.64157e-06
0.00139085
0.0049573
0.00575782
0.0059323
0.00603139
0.00603357
0.00337603
6.63515e-05
1.32935e-07
5.61791e-07
4.2128e-06
0.000444747
0.00208011
0.00290202
0.00258412
0.000109047
4.2338e-05
4.05553e-05
3.30513e-05
3.26352e-05
3.26935e-05
9.60431e-06
1.7527e-06
9.7131e-05
6.68012e-05
0.000140582
0.000406988
0.00322965
0.00375745
0.000247833
4.95478e-07
1.91477e-07
4.03876e-07
1.61589e-06
4.88901e-05
0.000127311
8.69781e-05
0.0001078
0.0173309
4.23375e-05
1.34654e-05
5.48295e-06
3.4596e-06
4.549e-06
1.56942e-06
2.13047e-06
4.63625e-08
4.82248e-08
4.7923e-08
4.9965e-08
5.00125e-08
7.23483e-05
8.41967e-08
5.20411e-07
2.25129e-06
1.34092e-06
3.81206e-07
1.97051e-07
3.29167e-07
0.0154885
0.041647
0.0416469
3.22695e-05
8.74228e-06
6.23439e-07
2.19561e-07
2.19379e-07
1.09351e-06
3.01641e-06
8.81889e-07
2.38177e-07
2.33212e-07
1.50579e-07
9.45284e-08
7.82461e-08
7.87442e-08
2.69829e-07
2.38023e-06
3.28274e-05
1.13009e-05
2.17279e-07
8.08389e-06
0.0230579
0.0416454
0.0415378
1.9985e-08
1.9985e-08
3.78756e-07
3.7294e-07
2.19561e-07
1.94978e-06
3.00154e-06
1.04606e-06
6.54312e-07
6.51297e-07
2.89783e-07
6.28797e-09
1.03273e-07
2.68764e-07
2.62526e-07
2.46735e-07
6.20959e-05
0.000289126
0.000137328
2.92009e-05
0.00460377
0.0103155
0.00649951
1.9985e-08
1.9985e-08
1.86501e-07
6.15186e-08
2.50521e-07
5.1514e-07
1.04188e-06
7.22438e-07
4.67673e-07
1.68036e-07
4.08482e-10
7.10178e-09
8.50122e-08
2.21964e-07
2.09812e-07
1.25469e-07
3.19129e-05
0.000356799
0.000366097
0.000239979
0.000159272
1.37428e-05
3.45609e-05
1.9985e-08
2.01551e-08
2.01314e-08
2.71187e-08
1.93397e-07
4.903e-07
5.83457e-07
3.72727e-07
8.53755e-08
1.50772e-10
4.01971e-10
3.19804e-09
2.24155e-08
7.13807e-08
6.99779e-08
6.97767e-08
1.11631e-06
0.000175251
0.000366122
0.000360362
0.000181155
1.35989e-05
3.49633e-05
7.15254e-08
3.30424e-08
3.70199e-08
1.03112e-07
1.63026e-07
3.49939e-07
3.16719e-07
8.44847e-08
1.20562e-10
1.49469e-10
3.21581e-10
6.99174e-10
1.69658e-09
4.45462e-09
6.61421e-09
9.84856e-09
8.91352e-09
4.51892e-06
0.000201103
0.00033817
0.00015629
8.33934e-06
9.64773e-06
2.41102e-07
3.56194e-08
4.40757e-08
4.41481e-08
9.46398e-08
1.24947e-07
8.02175e-08
2.02582e-09
1.21222e-10
2.23553e-10
2.73697e-10
3.06051e-10
5.75695e-10
8.9557e-10
1.11016e-09
1.15981e-09
3.58439e-08
1.80355e-07
1.15102e-06
3.2341e-05
1.20163e-05
1.76266e-06
1.20003e-06
2.38571e-07
2.59912e-09
1.34589e-08
4.69216e-09
1.45002e-09
1.84809e-10
1.8449e-10
1.84213e-10
2.09597e-10
1.92202e-10
1.96619e-10
2.2529e-10
4.30372e-10
6.73861e-10
7.79896e-10
1.70124e-09
4.38227e-08
1.81984e-07
1.08252e-08
-5.4177e-13
2.83138e-22
-2.52715e-12
1.61462e-18
2.20684e-07
9.54673e-10
1.13206e-09
9.88166e-10
4.12981e-10
2.91474e-10
2.19125e-10
1.83947e-10
1.61684e-10
1.28618e-10
1.20215e-10
1.57243e-10
2.52438e-10
4.22032e-10
6.86946e-10
1.68852e-09
1.57516e-08
2.33453e-08
4.72228e-09
1.11648e-08
4.49551e-09
1.15892e-09
1.68598e-11
2.2032e-07
9.54831e-10
9.53927e-10
9.45002e-10
5.61789e-10
3.5741e-10
2.21718e-10
1.48874e-10
1.01223e-10
7.67979e-11
6.86522e-11
8.22733e-11
1.26508e-10
2.07002e-10
3.72753e-10
8.49661e-10
1.77153e-09
4.35976e-10
1.50617e-09
7.33725e-09
4.04651e-09
9.78517e-10
3.36731e-10
2.37748e-07
1.17267e-09
9.39363e-10
7.94992e-10
4.68669e-10
2.71495e-10
1.74901e-10
1.1245e-10
7.4858e-11
5.41746e-11
4.21068e-11
4.12884e-11
5.43926e-11
8.71873e-11
1.52492e-10
3.28081e-10
4.10747e-10
4.37912e-10
7.17333e-10
2.20124e-09
1.63926e-09
6.99513e-10
5.39135e-10
2.41157e-07
8.63969e-10
1.16262e-09
8.20812e-10
4.07304e-10
2.32156e-10
1.70439e-10
1.22379e-10
7.90379e-11
4.94829e-11
3.10417e-11
2.26739e-11
2.27979e-11
3.26406e-11
5.58882e-11
1.08447e-10
1.62301e-10
2.03873e-10
2.83948e-10
7.53932e-10
4.809e-10
3.33185e-10
4.19936e-10
2.32008e-07
6.9819e-10
1.4201e-09
9.63117e-10
4.44945e-10
2.70062e-10
2.04872e-10
1.50902e-10
9.56059e-11
5.60073e-11
2.97344e-11
1.70128e-11
1.14769e-11
1.18287e-11
1.76358e-11
2.97747e-11
5.23592e-11
6.88455e-11
9.21619e-11
1.93258e-10
1.24432e-10
1.67133e-10
3.21986e-10
6.23885e-08
6.12383e-10
1.61994e-09
1.12974e-09
4.84615e-10
3.40512e-10
2.84688e-10
1.79243e-10
1.19605e-10
6.64943e-11
3.32507e-11
1.6395e-11
8.40968e-12
5.49672e-12
5.43908e-12
7.75496e-12
1.31731e-11
1.94083e-11
2.67147e-11
4.9262e-11
4.73907e-11
6.96624e-11
1.79119e-10
2.02314e-09
5.56484e-10
1.68207e-09
1.15693e-09
6.00025e-10
5.25077e-10
4.09011e-10
2.21127e-10
1.49877e-10
7.93048e-11
3.77135e-11
1.72899e-11
8.0337e-12
3.96288e-12
2.35763e-12
2.09309e-12
2.8159e-12
4.27095e-12
6.25813e-12
1.09928e-11
1.31273e-11
2.7055e-11
7.57133e-11
2.19363e-10
2.24712e-10
1.54226e-09
1.20223e-09
9.11142e-10
9.35391e-10
5.99579e-10
2.83328e-10
1.89578e-10
9.65605e-11
4.26293e-11
1.84808e-11
8.15965e-12
3.62631e-12
1.66801e-12
8.94173e-13
6.69347e-13
9.11788e-13
1.46392e-12
2.54231e-12
4.27498e-12
7.79751e-12
2.30127e-11
7.25761e-07
1.34839e-10
9.84993e-10
1.2863e-09
1.64273e-09
1.72506e-09
8.87777e-10
3.713e-10
2.45464e-10
1.20788e-10
4.94183e-11
1.94435e-11
8.1632e-12
3.43766e-12
1.45569e-12
6.30086e-13
2.98873e-13
1.96504e-13
3.05317e-13
5.69228e-13
9.12708e-13
2.1167e-12
6.11508e-12
1.37073e-06
9.52229e-11
3.39656e-10
1.25227e-09
2.14821e-09
2.23333e-09
1.35244e-09
5.024e-10
3.27362e-10
1.58693e-10
6.03162e-11
2.05967e-11
7.95744e-12
3.18429e-12
1.2986e-12
5.28208e-13
2.11852e-13
8.92214e-14
5.8691e-14
1.14911e-13
2.24947e-13
4.10474e-13
1.34746e-12
1.37128e-06
9.41967e-11
9.41815e-11
9.10489e-10
1.90951e-09
2.31393e-09
1.70779e-09
6.87222e-10
4.33538e-10
2.22788e-10
7.81324e-11
2.42302e-11
7.73865e-12
2.87738e-12
1.11944e-12
4.4263e-13
1.69055e-13
6.45334e-14
2.08958e-14
2.07889e-14
3.352e-14
7.43782e-14
2.58162e-13
1.37129e-06
8.51529e-08
7.05622e-09
4.04248e-10
1.07861e-09
1.63135e-09
1.7467e-09
9.33731e-10
5.81339e-10
3.1009e-10
1.1331e-10
3.1535e-11
7.83182e-12
2.56401e-12
9.48328e-13
3.52231e-13
1.31552e-13
4.50931e-14
1.58474e-14
4.57484e-15
6.19199e-15
1.01396e-14
4.21172e-14
1.37129e-06
1.23595e-06
4.21325e-08
3.39352e-10
3.01491e-10
5.64407e-10
1.83583e-09
1.24854e-09
7.66445e-10
4.34224e-10
1.7483e-10
4.62666e-11
9.55757e-12
2.42779e-12
7.87017e-13
2.78259e-13
9.74301e-14
3.31811e-14
9.66169e-15
3.08676e-15
8.18943e-16
1.29367e-15
5.96174e-15
9.49199e-07
1.39854e-06
4.23955e-08
9.27227e-10
3.01092e-10
2.51014e-08
2.48383e-09
1.58335e-09
1.05048e-09
5.93265e-10
2.67632e-10
7.93391e-11
1.58163e-11
2.96278e-12
7.12611e-13
2.16337e-13
6.97625e-14
2.21878e-14
6.32183e-15
1.66352e-15
4.45391e-16
1.42439e-16
6.42658e-16
2.31479e-07
1.18145e-06
8.14643e-07
1.53258e-06
4.73586e-07
8.37771e-08
1.58688e-09
1.72239e-09
1.46406e-09
8.19514e-10
4.01681e-10
1.42861e-10
3.45215e-11
6.12377e-12
9.85191e-13
1.99501e-13
5.06959e-14
1.43753e-14
3.77697e-15
9.55602e-16
2.29556e-16
2.21187e-17
5.91313e-17
1.66615e-07
5.06282e-07
3.28351e-06
3.29712e-06
2.54932e-06
1.27871e-07
1.58585e-09
2.19943e-09
2.04336e-09
1.09102e-09
5.41435e-10
2.25596e-10
7.20508e-11
1.55229e-11
2.47936e-12
3.44861e-13
5.30942e-14
9.68769e-15
2.26864e-15
4.80217e-16
1.11273e-16
5.7319e-18
5.40164e-18
1.66241e-07
4.04299e-07
3.29712e-06
3.29712e-06
2.18018e-06
7.30769e-08
1.5888e-09
5.09953e-09
4.42988e-09
1.43875e-09
6.5695e-10
3.13884e-10
1.07269e-10
2.94652e-11
5.63939e-12
8.29339e-13
9.40648e-14
1.17959e-14
1.54028e-15
2.68114e-16
4.26293e-17
5.78255e-18
4.66865e-19
3.3206e-07
3.75708e-07
1.77978e-06
2.24901e-06
4.1689e-07
3.17066e-08
8.63372e-09
1.24447e-08
8.08606e-09
1.88423e-09
7.75831e-10
3.7014e-10
1.38247e-10
4.12285e-11
9.04278e-12
1.5554e-12
2.01084e-13
2.1886e-14
1.82501e-15
1.82468e-16
2.23659e-17
2.80846e-18
6.47287e-20
1.18689e-06
3.85198e-07
1.74947e-07
6.89039e-08
4.37e-08
1.32331e-08
1.33471e-08
1.33834e-08
6.92495e-09
1.33306e-09
7.48065e-10
3.88979e-10
1.55766e-10
5.01134e-11
1.25848e-11
2.33863e-12
3.16954e-13
3.35492e-14
2.98111e-15
2.12802e-16
1.85229e-17
1.65618e-18
2.23999e-20
1.18689e-06
2.09541e-07
5.81051e-09
7.38702e-09
9.69995e-09
9.29556e-09
1.33708e-08
1.04529e-08
2.77334e-09
1.09253e-09
6.90641e-10
3.54847e-10
1.4791e-10
4.95093e-11
1.21807e-11
2.37853e-12
3.54753e-13
3.8647e-14
3.58837e-15
2.57786e-16
1.5879e-17
1.045e-18
6.41322e-21
1.18689e-06
1.34289e-07
5.73458e-09
5.85499e-09
6.01155e-09
8.41807e-09
8.82204e-09
3.62211e-09
1.25865e-09
8.97632e-10
5.57442e-10
2.75024e-10
1.08542e-10
3.37201e-11
8.20214e-12
1.57666e-12
2.38047e-13
2.61425e-14
2.51699e-15
1.91445e-16
1.20203e-17
6.09931e-19
1.08524e-20
1.18689e-06
6.10922e-07
3.34126e-08
1.17743e-08
6.78406e-09
2.6146e-08
5.99239e-09
1.19343e-09
1.03656e-09
7.33499e-10
3.9659e-10
1.67833e-10
5.8263e-11
1.60576e-11
3.59616e-12
6.3773e-13
9.44908e-14
1.05235e-14
1.02641e-15
7.12074e-17
4.42966e-18
2.25614e-19
8.75608e-21
2.54081e-07
1.01814e-06
1.01099e-06
9.49407e-07
7.76938e-07
1.29418e-07
1.25543e-09
1.22086e-09
1.00825e-09
5.68413e-10
2.39072e-10
7.62852e-11
2.09503e-11
4.79424e-12
9.17728e-13
1.56684e-13
2.22973e-14
2.43683e-15
2.34376e-16
1.75236e-17
1.04441e-18
4.9236e-20
1.95317e-21
1.72952e-08
5.49418e-07
1.01797e-06
1.0101e-06
8.00129e-07
9.30993e-08
1.14714e-09
1.1025e-09
6.80334e-10
2.72585e-10
8.14371e-11
2.16038e-11
4.57162e-12
8.91452e-13
1.53434e-13
2.24445e-14
3.08281e-15
3.67289e-16
3.50893e-17
2.57116e-18
1.62341e-19
7.82877e-21
2.95485e-22
8.00733e-09
5.36765e-09
1.59908e-07
2.43843e-07
9.37821e-08
1.38705e-08
1.42053e-09
6.70974e-10
2.56809e-10
7.94081e-11
1.97898e-11
3.88636e-12
6.67944e-13
1.03168e-13
1.61561e-14
2.42502e-15
3.25544e-16
3.88978e-17
3.88711e-18
3.22577e-19
2.14388e-20
1.04777e-21
3.79458e-23
3.18781e-09
1.36977e-09
8.89446e-10
8.70556e-10
8.51572e-10
8.32617e-10
6.6174e-10
2.37275e-10
7.57283e-11
1.83227e-11
3.49522e-12
5.5996e-13
7.88149e-14
1.04803e-14
1.41106e-15
1.95997e-16
2.64033e-17
3.31558e-18
3.69373e-19
3.52218e-20
2.61793e-21
1.41725e-22
4.77768e-24
0.968822
0.933476
0.892441
0.816866
0.859219
0.852446
0.853593
0.800166
0.211436
0.335496
0.361271
0.269078
0.0128537
0.00145717
0.00787826
0.0143848
0.00141597
1.42861e-13
0.00328381
0.0138007
1.42858e-13
1.63029e-13
0.000339959
0.00907635
1.63013e-13
4.16417e-05
0.0011052
0.00441926
0.0415791
0.0413996
0.0208633
0.00325517
0.041647
0.0408585
0.0415543
0.0413213
0.0107707
0.000702094
0.0016447
0.00301839
2.66865e-07
4.66923e-09
4.82892e-10
6.72098e-10
0.000153091
0.000127001
1.24852e-08
2.23745e-06
7.4492e-05
7.25425e-05
0.000151338
0.000150432
2.03757e-05
1.5506e-05
2.13554e-05
0.000101283
6.0068e-06
1.36139e-05
1.2934e-05
2.11267e-05
1.09355e-06
7.21884e-06
3.00572e-06
9.51912e-10
9.73401e-11
2.11811e-07
6.2389e-08
9.02353e-10
2.4755e-10
-3.81382e-12
4.58847e-27
2.89417e-26
9.32011e-10
2.06903e-09
3.04547e-09
4.24939e-09
8.46733e-10
2.07997e-09
4.25565e-09
5.24228e-09
6.35451e-10
1.49741e-09
2.01978e-09
3.44439e-09
3.94329e-10
5.84685e-10
8.85869e-10
1.20158e-09
1.39728e-10
2.06367e-10
2.83616e-10
3.95855e-10
3.66623e-11
4.87768e-11
8.0842e-11
1.1605e-10
8.85089e-12
1.34115e-11
1.93952e-11
3.31967e-11
2.13281e-12
2.73137e-12
5.24029e-12
8.77887e-12
4.67263e-13
7.10638e-13
1.12496e-12
2.12971e-12
7.0902e-14
9.55543e-14
2.14884e-13
3.8815e-13
9.85974e-15
1.62807e-14
2.9344e-14
6.56026e-14
1.22952e-15
1.64787e-15
3.93394e-15
8.40365e-15
1.35437e-16
2.03515e-16
3.97382e-16
8.98366e-16
1.12461e-17
1.4487e-17
3.56248e-17
7.69928e-17
6.70653e-19
1.12075e-18
2.62807e-18
6.046e-18
5.37029e-20
7.05717e-20
1.96356e-19
4.89023e-19
2.39756e-21
4.9162e-21
1.42161e-20
3.7069e-20
2.39911e-25
3.05017e-22
1.05502e-21
3.04097e-21
6.35816e-28
1.82332e-23
8.41032e-23
2.6626e-22
5.99732e-28
1.97297e-24
6.2308e-24
2.32102e-23
5.99724e-28
1.51598e-25
5.75744e-25
1.66152e-24
5.99724e-28
1.71085e-26
3.84841e-26
1.32273e-25
5.99724e-28
2.766e-27
3.68355e-27
1.08403e-26
5.99724e-28
6.23994e-28
3.33994e-28
8.31111e-28
0.281009
0.146635
0.780311
0.997793
0.93531
0.488633
0.253181
0.549908
0.978871
0.999918
0.999546
0.999973
0.980593
0.77567
0.606431
0.547432
0.548641
0.662349
0.900294
0.418805
0.398803
0.998772
0.998803
0.992014
0.905748
0.831873
0.881646
0.998175
0.999947
0.999944
0.999973
0.999957
0.882164
0.465121
0.462613
0.585104
0.646825
0.729211
0.182774
0.478497
0.998617
0.998802
0.998954
0.999197
0.999205
0.999179
0.999351
0.999149
0.999941
0.998617
0.937308
0.682583
0.407416
0.588096
0.880615
0.880589
0.338379
0.0152515
0.181481
0.728095
0.979126
0.974175
0.973752
0.99484
0.99913
0.99894
0.992904
0.990892
0.9583
0.596894
0.407678
0.407341
0.617338
0.80951
0.880101
0.336797
0.0156618
0.016002
0.174419
0.559543
0.761897
0.851111
0.91147
0.948903
0.948301
0.917926
0.927864
0.959761
0.649098
0.416814
0.44421
0.572507
0.340736
0.827106
0.323865
0.0156205
0.00417203
0.000877912
0.0176887
0.0271117
0.07175
0.180344
0.310432
0.41093
0.553032
0.699261
0.764689
0.777277
0.772913
0.45514
0.230396
0.306706
0.795562
0.326199
0.00628553
0.00099502
0.000771419
0.000783304
0.000776073
0.0008285
0.000680327
-4.33132e-08
-9.76118e-15
8.91528e-22
0.0439681
0.117943
0.161555
0.0387312
0.00648814
0.0307764
0.614545
0.796099
0.362186
0.00317329
0.00306572
0.00117039
0.000766473
0.000854632
0.00164488
0.00411514
0.00297648
0.000176075
3.99813e-09
-7.89125e-13
3.70937e-13
2.58872e-13
-4.67706e-22
0.000592498
0.21749
0.711211
0.792733
0.388634
0.00537455
0.00379082
0.00227303
0.000769163
0.00133524
0.00341561
0.00638961
0.0055098
0.00175371
4.54168e-05
5.87277e-08
5.04084e-06
4.178e-05
-1.28072e-08
0.024875
0.192295
0.188912
0.536972
0.550581
0.0033616
0.00254208
0.00077387
0.000779005
0.00429567
0.0111052
0.0111784
0.0111728
0.00591897
6.93565e-08
8.61252e-08
5.13618e-05
0.00029524
0.00391746
0.00869939
2.65213e-06
0.000246403
0.123104
0.455882
6.62596e-10
6.66612e-10
0.00379613
0.011136
0.0111906
0.0111906
0.0102851
0.00441859
0.00125859
0.000132562
9.94265e-05
0.0003028
0.000256267
2.93683e-05
2.65201e-06
2.55901e-06
5.78628e-07
0.0109061
0.134665
4.70386e-06
5.81654e-05
0.000610278
0.00210472
0.00365349
0.0022398
2.90429e-06
1.82679e-06
2.552e-06
9.46103e-05
0.000308358
0.000289321
1.29215e-05
1.18975e-05
1.00953e-05
1.99388e-06
5.68509e-07
3.58062e-07
3.44114e-07
9.72409e-05
1.53328e-07
2.87117e-07
3.77594e-07
9.44985e-08
1.35267e-08
1.34924e-08
1.35263e-08
5.08752e-06
0.000260068
0.000434009
0.000322744
0.000128745
6.04014e-05
2.55699e-05
1.65734e-06
3.70896e-07
5.84261e-07
3.30316e-07
6.32755e-05
2.48254e-06
2.6848e-06
2.61926e-06
1.16809e-06
2.81145e-08
1.3582e-08
1.34933e-08
8.06637e-06
0.0002317
0.000432298
0.000434765
0.000439665
0.000258867
5.18208e-05
4.39334e-06
3.66936e-07
5.17294e-07
2.4082e-08
7.13307e-05
3.56098e-05
8.17908e-07
1.0374e-07
1.0225e-07
1.00469e-07
2.12587e-08
2.40943e-08
1.57616e-08
1.5349e-08
3.55586e-05
0.000243105
0.000397098
0.000396191
9.60198e-05
1.73495e-05
1.50738e-06
5.8002e-25
1.70464e-27
6.66552e-05
8.22783e-05
7.60355e-05
1.82073e-05
8.5507e-09
8.88685e-09
8.47145e-09
9.17841e-09
1.4522e-08
2.75883e-08
2.52876e-08
1.61615e-08
9.67234e-05
0.000115303
3.72126e-05
2.10747e-05
3.21516e-06
-1.2207e-24
6.12373e-10
2.26639e-05
8.21099e-05
8.23118e-05
8.21491e-05
3.35929e-05
3.32652e-07
8.30417e-09
8.34065e-09
8.36295e-09
2.44965e-08
1.88705e-07
1.92568e-07
2.18316e-11
2.94624e-11
2.18315e-11
3.11378e-06
2.83899e-06
4.10465e-08
2.2656e-09
7.43274e-08
3.69e-07
6.14344e-05
8.12142e-05
8.01215e-05
3.4399e-05
6.57138e-07
8.36259e-09
8.39154e-09
8.3959e-09
1.59753e-06
1.78796e-05
1.40842e-05
2.76543e-06
8.12317e-08
-6.66696e-12
1.36496e-10
6.24162e-08
4.58876e-09
2.20182e-09
2.20201e-09
1.30621e-09
2.7026e-05
6.79068e-05
4.66726e-05
2.46631e-05
1.04125e-07
1.06002e-08
8.40681e-09
5.26601e-06
3.0276e-05
3.03179e-05
8.04002e-06
2.25821e-07
3.51467e-08
6.599e-09
1.52358e-08
2.87078e-09
4.11045e-09
2.25569e-09
1.31555e-09
2.81004e-09
8.50305e-06
1.52905e-05
1.02649e-05
3.20699e-06
1.42654e-07
8.60673e-09
7.10664e-06
3.03164e-05
2.66326e-05
3.51346e-06
1.24924e-07
4.7464e-08
1.27449e-08
3.47525e-10
2.18175e-10
3.2332e-09
2.52467e-09
1.39357e-09
3.5525e-10
2.3861e-10
2.20111e-10
7.28058e-08
6.89208e-07
1.97363e-07
9.9383e-09
1.12069e-05
1.64606e-05
2.24603e-06
1.01391e-07
2.18395e-08
1.86892e-08
7.15998e-09
8.36443e-11
1.3945e-11
1.2845e-09
1.47725e-09
1.48967e-09
1.06821e-09
4.94929e-10
2.2245e-10
2.21478e-10
9.76421e-10
7.20758e-08
3.05424e-06
1.4987e-06
7.08465e-08
1.21393e-09
7.76093e-10
8.07265e-11
7.30415e-11
7.30637e-11
7.26846e-11
1.39301e-11
4.33226e-10
5.09724e-10
5.71626e-10
5.72901e-10
4.50141e-10
2.29549e-10
6.55235e-10
1.06155e-08
2.29721e-07
1.02086e-07
3.88863e-09
1.28258e-10
1.27065e-10
1.30304e-10
1.3113e-10
1.13035e-10
9.26019e-11
4.43977e-11
5.3563e-12
1.48061e-10
1.73866e-10
2.06921e-10
2.35714e-10
2.36092e-10
1.71547e-10
6.84732e-09
1.25253e-08
1.03234e-08
1.19722e-10
1.91726e-10
2.19502e-10
2.17843e-10
1.96235e-10
1.66059e-10
1.26584e-10
8.15554e-11
2.4491e-11
2.91297e-12
4.79407e-11
6.00158e-11
7.2157e-11
9.40695e-11
1.12875e-10
1.63884e-10
1.41051e-10
3.53403e-10
8.51825e-11
1.19995e-10
1.83283e-10
1.81369e-10
1.52449e-10
1.24386e-10
1.01871e-10
8.35525e-11
4.838e-11
1.39438e-11
2.21359e-12
1.43686e-11
1.92417e-11
2.57557e-11
3.32669e-11
4.68323e-11
5.37343e-11
5.22979e-11
5.30304e-11
7.40302e-11
8.83496e-11
8.89862e-11
8.11131e-11
7.14619e-11
6.38525e-11
5.96011e-11
5.23731e-11
2.80071e-11
8.44542e-12
1.70458e-12
3.4639e-12
5.35161e-12
8.42709e-12
1.16541e-11
1.56442e-11
2.04275e-11
2.45807e-11
2.67905e-11
3.18519e-11
3.32808e-11
3.34936e-11
3.3637e-11
3.29792e-11
3.39844e-11
3.46372e-11
2.95659e-11
1.37819e-11
5.14298e-12
1.13866e-12
7.15006e-13
1.24182e-12
2.24428e-12
3.58678e-12
5.27096e-12
7.129e-12
9.02527e-12
1.09655e-11
1.21526e-11
1.29158e-11
1.32028e-11
1.34063e-11
1.42128e-11
1.3765e-11
1.34556e-11
1.32191e-11
5.51224e-12
1.66832e-12
8.98837e-13
1.18887e-13
2.37289e-13
4.81875e-13
8.84944e-13
1.45712e-12
2.1344e-12
2.72684e-12
3.24298e-12
3.61745e-12
4.13336e-12
4.40573e-12
4.37643e-12
2.84418e-12
2.91487e-12
3.82804e-12
3.57324e-12
1.43979e-12
9.17144e-13
7.94347e-13
1.68779e-14
3.59742e-14
8.01467e-14
1.59202e-13
2.95839e-13
4.68556e-13
6.59888e-13
8.0435e-13
8.98327e-13
6.10199e-13
3.94431e-13
2.36159e-13
1.84967e-13
3.55964e-13
6.27443e-13
6.37755e-13
5.70598e-13
7.81647e-13
7.25834e-13
1.72625e-15
4.14585e-15
9.79207e-15
2.21994e-14
4.27244e-14
7.50441e-14
1.00835e-13
9.99282e-14
4.92315e-14
1.81025e-14
7.8752e-15
9.3081e-15
1.52554e-14
5.25409e-14
1.27835e-13
2.01472e-13
3.66666e-13
7.37401e-13
6.08716e-13
1.5361e-16
3.59344e-16
9.74501e-16
2.34066e-15
4.70263e-15
7.39289e-15
9.18943e-15
6.33924e-15
1.64279e-15
1.25401e-15
2.52244e-15
5.60991e-15
1.17697e-14
2.93508e-14
7.78322e-14
1.67843e-13
3.6201e-13
7.0353e-13
4.93607e-13
1.17664e-17
3.13374e-17
8.58797e-17
2.15063e-16
4.32413e-16
6.56846e-16
7.30324e-16
5.00621e-16
5.15042e-16
1.0163e-15
2.29976e-15
5.09533e-15
1.18599e-14
2.92895e-14
8.13638e-14
1.87769e-13
3.76842e-13
6.52792e-13
4.21902e-13
9.93119e-19
2.80799e-18
7.39588e-18
1.86565e-17
3.97002e-17
6.40724e-17
8.52788e-17
1.30402e-16
3.1068e-16
7.76806e-16
1.89993e-15
4.52222e-15
1.0824e-14
2.85301e-14
8.23464e-14
2.01278e-13
3.83449e-13
5.58108e-13
3.42967e-13
8.09809e-20
2.46898e-19
7.35807e-19
1.93289e-18
4.52721e-18
9.79716e-18
2.17301e-17
5.91543e-17
1.67419e-16
4.62037e-16
1.22473e-15
3.18548e-15
8.27796e-15
2.0231e-14
6.07041e-14
1.73931e-13
3.43638e-13
4.73449e-13
2.14539e-13
7.28485e-21
2.50179e-20
8.08431e-20
2.50298e-19
7.29682e-19
2.14235e-18
6.63425e-18
2.15634e-17
6.85611e-17
2.07917e-16
6.19107e-16
1.77531e-15
5.02716e-15
1.37075e-14
3.31722e-14
1.00133e-13
2.58507e-13
3.34966e-13
1.39092e-13
6.85083e-22
2.53834e-21
9.54872e-21
3.5059e-20
1.25141e-19
4.30417e-19
1.57161e-18
5.8435e-18
2.08728e-17
7.32336e-17
2.52752e-16
8.24155e-16
2.54357e-15
7.20366e-15
1.84402e-14
4.6972e-14
1.20401e-13
2.1462e-13
8.7539e-14
5.81556e-23
2.53831e-22
1.02647e-21
4.19243e-21
1.6818e-20
6.80078e-20
2.90455e-19
1.20039e-18
4.86987e-18
1.96805e-17
7.97087e-17
3.09444e-16
1.09868e-15
3.47815e-15
9.3519e-15
2.12933e-14
4.95917e-14
9.9625e-14
4.9667e-14
4.97272e-24
2.14252e-23
8.14904e-23
2.96458e-22
1.17634e-21
5.30038e-21
2.72277e-20
1.57583e-19
8.59349e-19
4.34982e-18
2.05047e-17
9.53549e-17
3.92563e-16
1.37298e-15
4.05208e-15
1.03217e-14
1.966e-14
4.67027e-14
2.48295e-14
3.66688e-25
1.45455e-24
5.24502e-24
2.01216e-23
9.38567e-23
5.25596e-22
3.19377e-21
1.99048e-20
1.2942e-19
8.01873e-19
4.77985e-18
2.70921e-17
1.27879e-16
4.63729e-16
1.37146e-15
3.50739e-15
8.15379e-15
1.45766e-14
1.48746e-14
2.5097e-26
8.69143e-26
2.79771e-25
1.08041e-24
5.69008e-24
3.82222e-23
2.97455e-22
2.34116e-21
1.90873e-20
1.51858e-19
1.18293e-18
7.66542e-18
3.85925e-17
1.5149e-16
4.82623e-16
1.21081e-15
2.09802e-15
6.66912e-15
7.22668e-15
1.55283e-27
4.2338e-27
1.23013e-26
5.12508e-26
3.11672e-25
2.60852e-24
2.53688e-23
2.55902e-22
2.60419e-21
2.38383e-20
1.87857e-19
1.19145e-18
6.90016e-18
2.92482e-17
9.86421e-17
2.59253e-16
6.34454e-16
1.34048e-15
1.16574e-15
)
;

boundaryField
{
    leftWall
    {
        type            zeroGradient;
    }
    rightWall
    {
        type            zeroGradient;
    }
    lowerWall
    {
        type            zeroGradient;
    }
    atmosphere
    {
        type            inletOutlet;
        inletValue      uniform 0;
        value           nonuniform List<scalar> 
46
(
3.18781e-09
1.36977e-09
8.89446e-10
8.70556e-10
8.51572e-10
8.32617e-10
6.6174e-10
2.37275e-10
7.57283e-11
1.83227e-11
3.49522e-12
5.5996e-13
7.88149e-14
1.04803e-14
1.41106e-15
1.95997e-16
2.64033e-17
3.31558e-18
3.69373e-19
3.52218e-20
2.61793e-21
1.41725e-22
4.77768e-24
5.99724e-28
6.23994e-28
3.33994e-28
8.31111e-28
0
0
0
0
0
0
0
0
0
0
0
0
0
0
0
0
0
0
0
)
;
    }
    defaultFaces
    {
        type            empty;
    }
}


// ************************************************************************* //
