/*--------------------------------*- C++ -*----------------------------------*\
| =========                 |                                                 |
| \\      /  F ield         | OpenFOAM: The Open Source CFD Toolbox           |
|  \\    /   O peration     | Version:  2312                                  |
|   \\  /    A nd           | Website:  www.openfoam.com                      |
|    \\/     M anipulation  |                                                 |
\*---------------------------------------------------------------------------*/
FoamFile
{
    version     2.0;
    format      ascii;
    arch        "LSB;label=32;scalar=64";
    class       volScalarField;
    location    "1.9";
    object      alpha.oil;
}
// * * * * * * * * * * * * * * * * * * * * * * * * * * * * * * * * * * * * * //

dimensions      [0 0 0 0 0 0 0];

internalField   nonuniform List<scalar> 
2268
(
7.92965e-10
3.38392e-10
6.86852e-11
1.03606e-11
1.64963e-12
5.84443e-13
1.12508e-12
5.23928e-12
1.2234e-11
2.02299e-11
2.68757e-11
3.2495e-11
3.97869e-11
5.82583e-11
8.49516e-11
1.36722e-10
2.33551e-10
3.92249e-10
5.23446e-10
5.23806e-10
3.66877e-06
5.1745e-05
6.19721e-05
1.35018e-09
5.713e-10
9.29207e-11
1.37994e-11
4.82119e-12
3.7417e-12
1.71877e-11
6.73356e-11
1.46752e-10
2.44678e-10
3.14787e-10
3.12254e-10
1.96589e-10
1.56634e-10
1.81217e-10
3.04885e-10
5.09557e-10
1.00138e-09
1.86626e-09
5.23956e-10
8.87524e-07
2.03132e-05
4.25554e-05
1.1806e-09
4.50147e-10
6.01256e-11
1.27497e-11
3.65302e-12
3.65666e-12
8.37024e-11
2.98091e-10
6.67334e-10
1.05063e-09
1.14269e-09
1.07629e-09
6.26984e-10
3.3295e-10
2.34861e-10
2.24165e-10
2.64907e-10
2.28627e-09
1.54705e-08
1.02536e-07
2.04348e-07
2.14683e-15
2.1461e-15
4.02579e-10
1.79354e-10
2.13492e-11
4.22426e-11
5.16274e-09
6.23305e-09
5.60081e-11
2.18659e-10
3.94602e-10
6.4412e-10
7.42148e-10
7.14733e-10
6.14196e-10
4.10484e-10
3.29e-10
1.15759e-10
1.14785e-24
1.62069e-24
1.10028e-24
2.24979e-15
1.06877e-10
1.37073e-10
2.1461e-15
1.20105e-11
1.20109e-11
2.95498e-10
4.6333e-09
9.51416e-06
5.33075e-08
-1.3148e-29
-7.17301e-14
9.89414e-13
-3.46138e-23
1.15235e-23
1.2884e-23
1.84003e-13
5.50187e-11
5.10683e-10
1.66541e-08
9.31379e-07
1.23813e-05
2.60127e-05
5.64148e-05
0.000593765
0.00203823
0.000812613
0.0131078
0.0443877
0.0447396
0.005255
3.07006e-14
2.19274e-22
1.86854e-26
9.97034e-08
8.83657e-05
0.000212922
0.000104489
2.68938e-05
9.72611e-06
8.51344e-06
5.06091e-10
1.50493e-06
5.36553e-05
0.000117623
0.000147468
0.000280298
0.00250087
0.0102407
0.0103211
0.743216
0.240424
1.73055e-06
0.00151195
9.01656e-06
0.000758641
0.00141437
0.00156002
0.00156181
0.0012739
0.000358272
0.000140104
0.000164388
0.000134323
2.30229e-05
9.95112e-06
8.46489e-05
9.88916e-05
9.30448e-05
0.00028339
0.00205402
0.00951872
0.0126989
0.910538
0.284584
1.43681e-06
1.04818e-05
0.000125976
0.000457981
0.000763981
0.000907956
0.00098407
0.000617679
0.00024242
0.000154671
0.000236902
0.000203486
7.29727e-05
1.32711e-05
7.05209e-06
2.56158e-06
-5.83904e-22
-1.66256e-08
5.4133e-06
0.000303431
0.0124834
0.0584988
0.0584633
0.0584261
0.0571854
0.0560545
0.0560394
0.0488644
0.0467631
0.0401984
0.0429264
0.0463862
0.0386262
0.0282675
0.0233798
0.0233798
0.0234114
0.0234131
0.0247461
0.0313578
0.0585353
0.0634419
0.142941
0.0656968
0.14097
0.214431
0.185251
0.183603
0.153589
0.182726
0.329009
0.40838
0.42656
0.383026
0.306589
0.140677
0.050463
0.040294
0.0376057
0.259101
0.440501
0.51853
0.523311
0.530265
0.530243
0.423633
0.210841
0.183842
0.182947
0.228441
0.510959
0.583769
0.584259
0.577756
0.571531
0.475157
0.347687
0.265378
0.440484
0.409047
0.168735
0.365271
0.505141
0.468892
0.44464
0.419398
0.348475
0.25704
0.272056
0.568088
0.628933
0.616284
0.57802
0.578119
0.556232
0.510458
0.517144
0.180613
0.0211449
0.020596
0.0294574
0.0572461
0.032582
0.0325902
0.481575
0.717105
0.67273
0.612356
0.628962
0.629638
0.597654
0.588767
0.450902
0.143244
0.106023
0.456702
0.0899315
0.107746
0.339611
0.436513
0.183187
0.0325546
0.109069
0.508366
0.720248
0.720218
0.625445
0.430318
0.435519
0.508587
0.229403
0.108291
0.092333
0.0929662
0.302447
0.270674
0.535546
0.691032
0.625395
0.156817
0.0809474
0.462539
0.718806
0.720366
0.676036
0.197535
0.0211682
0.0633191
0.192794
0.110189
0.090382
0.090118
0.0903788
0.0964567
0.667868
0.827093
0.677945
0.00138917
0.0068163
0.312943
0.718921
0.719018
0.527475
0.159901
2.23636e-05
1.23113e-05
1.18601e-05
0.0324365
0.104704
0.12414
0.182579
0.107477
0.0921231
0.913619
0.796459
0.142211
9.45442e-07
9.42781e-07
9.45442e-07
9.42781e-07
0.000106884
0.000200179
0.000305443
9.0221e-05
8.88901e-05
0.000107123
7.95098e-05
3.03234e-05
5.45642e-06
6.68059e-06
0.00244721
0.021135
0.0115607
5.99628e-06
6.07405e-06
0.00786583
0.862965
0.935823
0.891937
0.621799
0.590978
0.529006
0.421686
0.153379
0.0372869
0.051759
0.00910746
0.00233638
0.0236271
0.0929226
0.168078
0.245405
0.334475
0.444866
0.55927
0.631973
0.564974
0.377078
0.143213
0.908885
0.977499
0.991125
0.996223
0.989862
0.976185
0.976796
0.977591
0.893876
0.7613
0.557938
0.457421
0.526889
0.720641
0.842486
0.915744
0.971826
0.971916
0.972056
0.972058
0.97205
0.958026
0.862249
0.976367
0.990171
0.995202
0.99626
0.994681
0.97652
0.976634
0.977657
0.987064
0.993791
0.990048
0.943999
0.926973
0.957094
0.957564
0.957565
0.933578
0.902736
0.901377
0.927532
0.97207
0.97206
0.968774
0.976301
0.812863
0.994859
0.991957
0.921074
0.989136
0.999545
0.999569
0.999561
0.999587
0.999593
0.999497
0.986826
0.906391
0.765486
0.518526
0.299608
0.182408
0.176725
0.232363
0.362471
0.652131
0.914388
0.976179
0.811792
0.963146
0.868142
0.719594
0.875044
0.980206
0.969261
0.955803
0.943365
0.910644
0.799693
0.514712
0.15798
3.2003e-19
-2.563e-12
-7.66314e-13
1.78855e-20
-8.78172e-20
4.04557e-20
1.16626e-18
0.0576971
0.468129
0.82489
0.825906
0.817619
0.688133
0.703571
0.612123
0.458646
0.341205
0.280418
0.242254
0.186514
0.0656255
6.55933e-19
-3.67035e-23
1.20727e-10
6.2426e-09
9.6197e-09
7.16934e-09
-3.0391e-21
-4.64437e-22
6.42643e-21
2.7095e-19
0.106592
0.329817
0.397118
0.409891
0.367235
0.234904
0.124131
0.032663
3.19114e-13
-2.62557e-11
1.1754e-11
2.63458e-10
6.17299e-10
0.000280482
5.33007e-05
-7.97601e-11
6.62832e-09
2.95104e-09
8.40633e-08
5.37626e-07
5.27398e-07
7.25367e-08
1.33758e-18
0.142088
1.10737e-19
-7.04989e-25
-3.80888e-10
2.5101e-07
1.14864e-21
-7.01377e-10
-4.00138e-09
-6.70188e-10
-1.20207e-10
1.4872e-05
6.44725e-05
7.0145e-05
0.000151769
2.15467e-06
3.49411e-19
1.77736e-09
2.60755e-09
5.7412e-08
4.17403e-07
4.48277e-07
4.03444e-16
0.0306795
0.649742
3.06973e-07
1.16124e-06
3.09609e-06
3.62972e-06
1.81041e-06
7.5819e-07
1.4086e-07
3.59965e-09
9.9767e-19
8.40009e-05
0.000273915
0.000273317
3.5788e-05
3.0257e-07
1.77299e-07
4.13288e-07
1.15942e-09
1.53016e-09
1.11714e-08
7.38461e-08
1.74968e-18
0.425691
0.960814
1.79977e-06
4.9543e-06
5.06141e-06
5.06753e-06
2.84527e-06
9.43389e-07
3.64196e-07
3.36333e-08
1.02621e-18
3.0953e-06
4.75034e-05
9.69434e-05
2.87421e-05
6.02139e-08
4.19353e-08
2.92038e-07
7.2729e-06
7.46288e-06
-1.20719e-11
1.8067e-13
-1.09436e-11
0.000155476
0.353917
3.26316e-07
2.71291e-07
3.3148e-06
3.37269e-06
3.93885e-07
9.71664e-09
2.73275e-08
6.64125e-08
7.68874e-08
1.04119e-09
1.0491e-09
1.09818e-09
1.05193e-06
1.38523e-07
3.99705e-08
4.30601e-08
8.06449e-06
5.4538e-05
5.13675e-05
8.4441e-06
3.08474e-05
0.000150406
4.63731e-06
4.01392e-09
3.97705e-09
4.01392e-09
1.79682e-08
2.73374e-07
9.71973e-09
1.99367e-08
1.49941e-07
1.49685e-07
9.13656e-08
1.038e-09
1.05229e-09
1.42604e-08
1.45639e-07
5.93642e-08
6.34945e-08
1.00283e-06
3.77158e-05
6.60973e-05
6.49757e-05
0.000103594
0.000121566
0.000117812
1.64981e-08
1.55809e-07
3.03266e-07
6.98224e-07
6.50514e-07
2.99501e-07
1.95925e-08
1.43242e-07
9.98295e-08
2.22429e-08
1.25093e-08
8.10947e-09
5.66593e-09
3.24693e-08
4.97535e-08
1.04742e-07
1.1698e-07
1.67646e-06
3.13172e-05
5.9496e-05
9.2893e-05
0.000409799
0.000556
6.97427e-08
5.96661e-07
7.49161e-07
7.47217e-07
6.64406e-07
1.79491e-07
1.25367e-07
8.10362e-08
1.03935e-09
6.08155e-09
1.44302e-08
8.24929e-09
2.80031e-09
2.93893e-09
1.64528e-08
4.88668e-08
5.62925e-08
1.85626e-08
2.09825e-08
6.79286e-06
1.80041e-05
0.000242317
0.00057469
9.763e-08
2.81239e-07
2.47211e-07
1.29769e-07
1.04099e-07
5.70301e-08
7.39036e-08
1.71552e-08
1.01208e-09
2.27745e-09
5.76531e-09
4.75922e-09
2.15931e-09
2.54851e-09
2.86351e-09
2.79987e-09
8.38559e-09
5.84301e-09
6.34457e-09
1.11044e-08
6.97883e-08
5.37452e-06
4.96559e-05
1.86326e-08
8.43216e-09
3.37745e-09
1.8373e-09
1.82943e-09
1.82136e-09
2.5867e-09
1.01077e-09
1.01166e-09
1.15275e-09
1.75691e-09
2.0219e-09
1.49832e-09
1.89751e-09
2.44349e-09
2.46976e-09
2.50367e-09
4.78036e-09
6.70629e-09
6.77396e-09
5.74659e-08
2.91966e-08
1.73033e-08
1.69604e-08
2.44084e-09
2.27959e-09
2.50121e-09
2.12375e-09
1.81156e-09
1.5181e-09
1.30843e-09
1.15314e-09
9.43612e-10
8.62355e-10
9.14541e-10
9.82219e-10
1.31467e-09
1.93311e-09
2.63612e-09
3.47169e-09
5.14046e-09
6.84201e-09
1.22079e-08
6.87003e-08
3.27246e-08
1.74378e-08
1.73656e-08
3.28796e-09
3.80559e-09
3.9965e-09
3.1248e-09
2.44094e-09
1.96962e-09
1.55813e-09
1.21766e-09
8.87448e-10
6.56375e-10
5.70623e-10
6.23086e-10
8.61111e-10
1.32846e-09
2.14291e-09
3.30077e-09
5.03495e-09
7.57621e-09
1.18023e-08
3.69659e-08
2.77258e-08
1.64604e-08
1.0043e-08
3.94021e-09
5.07491e-09
4.77236e-09
3.43571e-09
2.50618e-09
2.0679e-09
1.68402e-09
1.25217e-09
8.56507e-10
5.64807e-10
4.11783e-10
3.94121e-10
5.20368e-10
8.25831e-10
1.44744e-09
2.45118e-09
4.08479e-09
6.57609e-09
1.03188e-08
1.49736e-08
1.91455e-08
1.89036e-08
4.17939e-09
4.17605e-09
5.25986e-09
4.37849e-09
3.06849e-09
2.47826e-09
2.07718e-09
1.78312e-09
1.33813e-09
8.76314e-10
5.15804e-10
3.26332e-10
2.53224e-10
2.8838e-10
4.46193e-10
7.89602e-10
1.47697e-09
2.63873e-09
4.49907e-09
7.371e-09
8.86844e-09
1.50877e-08
1.63023e-08
2.74006e-08
4.18283e-09
5.07932e-09
3.66295e-09
3.50365e-09
5.35846e-09
2.06848e-09
1.83079e-09
1.48756e-09
9.14684e-10
5.01276e-10
2.76677e-10
1.7334e-10
1.54333e-10
2.10753e-10
3.71841e-10
7.05697e-10
1.36897e-09
2.42783e-09
4.11053e-09
5.75643e-09
7.66491e-09
9.39689e-09
8.48968e-08
4.72558e-09
6.299e-09
3.95824e-09
3.75055e-09
7.7141e-09
2.12816e-09
2.00632e-09
1.69346e-09
9.74187e-10
4.904e-10
2.4764e-10
1.32425e-10
8.83038e-11
9.23481e-11
1.49695e-10
2.7364e-10
5.3659e-10
9.65574e-10
1.74474e-09
2.32999e-09
3.5201e-09
4.58328e-09
8.50733e-08
5.43724e-09
9.61953e-09
2.09669e-08
6.64255e-08
3.40961e-09
2.11668e-09
2.20521e-09
1.98588e-09
1.05245e-09
4.84645e-10
2.27051e-10
1.1009e-10
5.84959e-11
4.29213e-11
5.39548e-11
9.43056e-11
1.83951e-10
3.46601e-10
6.25269e-10
9.51044e-10
1.27497e-09
1.9811e-09
5.88543e-08
7.69661e-09
3.53914e-08
1.97667e-07
2.28566e-07
1.25567e-08
2.13268e-09
2.46742e-09
2.37212e-09
1.14677e-09
4.87482e-10
2.11104e-10
9.49768e-11
4.38852e-11
2.38616e-11
1.99919e-11
2.88803e-11
5.24786e-11
1.04277e-10
1.92211e-10
2.7049e-10
4.54571e-10
7.80901e-10
1.04846e-08
1.03629e-08
8.87599e-08
3.14513e-07
2.95929e-07
2.95679e-08
2.1651e-09
3.02344e-09
2.83701e-09
1.26942e-09
5.0555e-10
1.98878e-10
8.27991e-11
3.52756e-11
1.6208e-11
9.33285e-12
9.0635e-12
1.41055e-11
2.52263e-11
5.19647e-11
8.33595e-11
1.21891e-10
2.40194e-10
3.49162e-08
1.07167e-08
1.03573e-07
3.14514e-07
3.14513e-07
6.04052e-08
2.20763e-09
3.94736e-09
3.41819e-09
1.47459e-09
5.3039e-10
1.93064e-10
7.27549e-11
2.90245e-11
1.21168e-11
5.63966e-12
3.53203e-12
3.86544e-12
6.02405e-12
1.16822e-11
1.75074e-11
2.93925e-11
6.20751e-11
2.59179e-07
1.29537e-08
8.30149e-08
2.69426e-07
3.14254e-07
6.70829e-08
3.16506e-09
5.71562e-09
4.32066e-09
1.76113e-09
6.05478e-10
2.00232e-10
6.47731e-11
2.39215e-11
9.42851e-12
3.84155e-12
1.81449e-12
1.23904e-12
1.40163e-12
2.45828e-12
4.1332e-12
6.11487e-12
1.42519e-11
3.04774e-07
3.77121e-08
4.13745e-08
7.89259e-08
2.9977e-07
2.2201e-07
1.99766e-08
9.28625e-09
5.82296e-09
2.46292e-09
7.54373e-10
2.25808e-10
6.28308e-11
2.03895e-11
7.25831e-12
2.79338e-12
1.11761e-12
5.42885e-13
4.06976e-13
5.35528e-13
7.30785e-13
1.35553e-12
3.42557e-12
2.75115e-07
4.61746e-08
1.32827e-08
2.47452e-08
1.76293e-07
3.6287e-07
1.06951e-07
2.28284e-08
1.03512e-08
4.525e-09
1.08342e-09
3.02333e-10
7.48564e-11
1.93621e-11
5.94995e-12
2.00117e-12
7.28949e-13
2.87201e-13
1.48371e-13
1.38646e-13
1.75759e-13
3.36531e-13
9.92214e-13
2.45857e-07
3.53098e-08
9.99163e-09
9.89138e-09
1.35102e-07
3.62844e-07
2.71618e-07
3.94371e-08
2.30058e-08
1.26465e-08
2.42793e-09
5.05607e-10
1.21792e-10
2.64056e-11
5.85308e-12
1.58786e-12
4.8451e-13
1.64225e-13
6.47292e-14
4.32667e-14
4.8839e-14
1.18685e-13
3.49809e-13
2.62514e-07
1.00131e-08
9.90731e-09
4.32156e-07
3.41954e-07
3.6287e-07
2.61374e-07
4.61457e-08
6.18427e-08
4.318e-08
6.01442e-09
9.40813e-10
2.37438e-10
5.10751e-11
9.39029e-12
1.72714e-12
3.77119e-13
9.52088e-14
3.1171e-14
1.51381e-14
1.58827e-14
3.88572e-14
1.42616e-13
1.22661e-05
7.69385e-07
1.23804e-06
8.67626e-07
2.13322e-07
2.72243e-07
1.72382e-07
4.24761e-07
4.36092e-07
6.46813e-08
7.7477e-09
1.67895e-09
3.68736e-10
8.6907e-11
1.6861e-11
2.78777e-12
4.09086e-13
7.26796e-14
1.59043e-14
5.76924e-15
4.70771e-15
1.27715e-14
5.59377e-14
2.95844e-05
2.77409e-05
1.20119e-05
2.89359e-07
4.97555e-08
6.2601e-08
1.0891e-07
8.99332e-07
8.84061e-07
1.12919e-07
1.00769e-08
1.8988e-09
4.37196e-10
1.05864e-10
2.2388e-11
4.08033e-12
6.01149e-13
8.12696e-14
1.06142e-14
2.44981e-15
1.4947e-15
4.23382e-15
1.84808e-14
2.95844e-05
2.95844e-05
1.33078e-05
5.16582e-08
4.51103e-08
4.70542e-08
4.85584e-07
8.99475e-07
7.04489e-07
4.67794e-08
6.21014e-09
1.28858e-09
3.15208e-10
8.79538e-11
2.32006e-11
4.77784e-12
7.39957e-13
9.20708e-14
1.04811e-14
1.35133e-15
4.95928e-16
1.00073e-15
5.2946e-15
2.95844e-05
1.71401e-05
3.47509e-06
7.22732e-08
4.51915e-08
4.44689e-08
6.61525e-07
8.91833e-07
2.13181e-07
1.57729e-08
2.87052e-09
6.68924e-10
2.05033e-10
6.93705e-11
1.90018e-11
4.20816e-12
7.17855e-13
9.11278e-14
9.93313e-15
1.00373e-15
1.87777e-16
3.03648e-16
1.44701e-15
2.95844e-05
4.56522e-07
8.06362e-08
5.47926e-08
4.62734e-08
4.44033e-08
2.95019e-07
1.85212e-07
2.19722e-08
4.46955e-09
1.19026e-09
3.91207e-10
1.41751e-10
4.63745e-11
1.25687e-11
2.74942e-12
4.7634e-13
6.08956e-14
6.75521e-15
6.50155e-16
8.37661e-17
7.02371e-17
3.74169e-16
2.37903e-05
8.32059e-06
6.16346e-08
4.97504e-08
4.93505e-08
8.49245e-07
2.92934e-07
2.23076e-08
6.86524e-09
2.24414e-09
7.39649e-10
2.52924e-10
8.34094e-11
2.39809e-11
5.92522e-12
1.20252e-12
2.06114e-13
2.70034e-14
3.05256e-15
2.71629e-16
2.85391e-17
1.68822e-17
7.94143e-17
1.52446e-06
3.15967e-05
2.8998e-05
3.05397e-05
2.72175e-05
6.43234e-06
2.14461e-08
8.13952e-09
3.4994e-09
1.112e-09
3.44119e-10
1.01092e-10
2.95064e-11
7.57928e-12
1.68054e-12
3.35784e-13
5.68029e-14
7.47372e-15
8.55744e-16
8.24237e-17
9.29723e-18
3.77224e-18
1.62105e-17
1.60709e-08
2.0059e-05
3.65427e-05
3.6552e-05
3.16181e-05
4.63393e-06
1.52224e-08
4.46462e-09
1.65546e-09
4.29741e-10
1.08786e-10
2.9466e-11
7.00974e-12
1.58133e-12
3.23918e-13
5.83352e-14
9.80632e-15
1.42192e-15
1.68222e-16
1.74634e-17
2.42901e-18
8.31479e-19
2.90937e-18
6.28563e-09
4.12881e-07
8.84632e-06
1.13763e-05
4.42549e-06
5.81764e-07
1.16544e-08
2.26114e-09
5.26897e-10
1.24292e-10
2.80879e-11
5.88994e-12
1.16081e-12
2.16163e-13
4.1417e-14
7.71673e-15
1.30618e-15
1.96601e-16
2.55958e-17
3.43386e-18
6.34969e-19
1.89739e-19
4.59586e-19
3.23742e-09
5.37511e-09
6.68196e-09
6.89468e-09
7.18583e-09
8.15258e-09
4.85435e-09
7.59004e-10
1.47172e-10
2.85117e-11
5.30958e-12
9.3362e-13
1.54575e-13
2.54168e-14
4.38003e-15
7.83353e-16
1.35292e-16
2.18334e-17
3.36124e-18
6.21398e-19
1.59755e-19
4.78896e-20
6.63584e-20
0.0245133
0.0444387
0.0445943
0.141613
0.053835
0.055611
0.0560476
0.144101
0.706818
0.555383
0.533375
0.669415
0.96813
0.950597
0.940262
0.96594
0.966142
0.966021
0.970571
0.968464
0.890638
0.968536
0.970821
0.966706
0.887674
0.979938
0.980795
0.979076
0.9329
0.962602
0.991264
0.993991
0.955564
0.955626
0.956458
0.968902
0.994164
0.994131
0.994168
0.99393
0.825538
0.803701
0.761241
0.774458
1.73258e-22
-2.39865e-22
-2.97709e-21
-6.36207e-22
0.000266777
0.00275235
0.00350366
0.00350013
0.000308371
0.000463637
0.000832122
0.000877094
0.000571825
0.000483464
0.000528863
0.000793349
0.000330783
0.000655446
0.000656407
0.000510357
3.64199e-08
5.62036e-05
0.000364291
0.000189224
2.68289e-08
2.21685e-08
2.13619e-06
1.02085e-05
1.58704e-08
2.20041e-08
1.49115e-08
8.09061e-08
1.75182e-08
1.3548e-08
1.5041e-08
2.17174e-08
1.48916e-08
1.16022e-08
9.91657e-09
1.2071e-08
9.3766e-09
7.71229e-09
9.901e-09
1.18911e-08
5.10469e-09
5.81718e-09
7.13261e-09
9.25783e-09
2.36504e-09
2.64673e-09
3.91051e-09
5.03966e-09
9.17966e-10
1.18126e-09
1.53519e-09
2.23506e-09
3.11467e-10
3.69868e-10
5.53875e-10
7.85267e-10
9.1125e-11
1.21636e-10
1.66199e-10
2.49048e-10
2.01122e-11
2.55536e-11
4.20905e-11
6.48377e-11
4.91099e-12
7.90994e-12
1.23536e-11
2.0659e-11
1.70516e-12
2.73224e-12
5.32893e-12
9.18606e-12
7.98599e-13
1.57735e-12
2.92831e-12
5.43631e-12
3.80217e-13
7.26975e-13
1.71115e-12
3.2897e-12
1.32548e-13
3.84541e-13
9.31671e-13
1.86212e-12
6.32876e-14
1.52403e-13
4.21142e-13
9.49878e-13
1.71416e-14
5.5377e-14
1.67828e-13
3.92159e-13
6.32111e-15
1.88076e-14
5.39073e-14
1.47765e-13
1.60452e-15
5.24976e-15
1.8182e-14
5.0078e-14
4.45494e-16
1.56504e-15
4.7176e-15
1.46338e-14
8.61311e-17
3.26239e-16
1.15423e-15
3.33756e-15
1.86435e-17
7.10051e-17
2.23343e-16
7.21227e-16
3.31785e-18
1.34872e-17
4.43101e-17
1.40103e-16
5.04121e-19
1.95786e-18
7.10828e-18
2.18958e-17
0.709682
0.824972
0.180797
3.49382e-05
0.0141283
0.425747
0.674055
0.366047
0.0117966
7.29176e-05
0.000406785
8.42757e-06
0.00601231
0.152653
0.298995
0.370947
0.377426
0.304984
0.0921231
0.552925
0.560046
1.02073e-20
3.62119e-05
0.00668019
0.0698232
0.123988
0.0868558
0.000305723
4.13414e-05
3.46378e-05
5.31019e-06
5.35696e-06
0.0653705
0.35105
0.403812
0.34248
0.287516
0.242439
0.778546
0.438617
-7.44169e-11
-3.07937e-10
3.29683e-32
1.14321e-13
1.59044e-05
5.48902e-06
0.000589748
0.000786082
2.26783e-07
2.37447e-07
0.017785
0.173798
0.417266
0.320431
0.0900762
0.0789221
0.605925
0.96573
0.740584
0.200643
1.86827e-20
1.9422e-20
4.74298e-15
2.01101e-09
1.64657e-09
-5.16173e-07
1.43112e-08
1.2819e-08
0.00502369
0.25731
0.432266
0.435102
0.307956
0.168492
0.0791173
0.607786
0.964915
0.934219
0.742169
0.36248
0.198077
0.114517
0.0593491
0.0337918
0.0111085
4.72754e-07
1.7433e-05
0.00542519
0.265832
0.449456
0.450296
0.401004
0.477631
0.0971511
0.62581
0.965276
0.947084
0.946238
0.968051
0.960478
0.907168
0.804928
0.662351
0.509962
0.361382
0.217815
0.184758
0.224161
0.226262
0.52512
0.719478
0.469136
0.104876
0.617868
0.984543
0.990631
0.988866
0.994112
0.994111
0.994109
0.994112
0.993773
0.979965
0.929083
0.874816
0.810236
0.80086
0.919724
0.918351
0.805543
0.174961
0.094357
0.570094
0.994195
0.994226
0.994189
0.994108
0.994116
0.994117
0.994103
0.994091
0.994089
0.99409
0.994068
0.985965
0.975775
0.919617
0.858374
0.591602
0.119893
0.0936497
0.539484
0.994225
0.994244
0.994233
0.994154
0.994143
0.993102
0.985638
0.981969
0.981517
0.989768
0.993249
0.993759
0.993771
0.921986
0.8275
0.658915
0.673271
0.3452
0.409882
0.993852
0.994273
0.994178
0.978151
0.896217
0.760411
0.604775
0.474939
0.439602
0.538668
0.692024
0.765686
0.793728
0.812901
0.842905
0.891384
0.892407
0.83727
0.519406
0.774159
0.568146
0.279454
0.154556
0.0950915
0.0329196
-1.90416e-07
1.26938e-21
1.08201e-13
9.50639e-10
0.0168417
0.062413
0.101109
0.152001
0.251234
0.421048
0.632412
0.722053
0.705197
3.57637e-21
4.43523e-14
-9.85629e-25
-7.25348e-09
-1.55181e-25
5.98072e-25
3.06133e-07
1.37264e-06
2.91536e-06
1.02263e-06
3.44993e-07
4.84153e-07
2.77852e-13
8.1858e-12
2.04967e-13
8.17143e-12
0.010075
0.155954
0.258961
0.00233998
2.47095e-06
1.25302e-06
2.63184e-06
4.45733e-06
4.86518e-06
3.30324e-06
4.81103e-06
2.35381e-05
2.98065e-05
2.23762e-05
1.09347e-05
9.33415e-07
3.29443e-07
1.82441e-06
7.1605e-06
5.35675e-07
7.49619e-08
3.95084e-09
0.00045833
0.000174237
1.64421e-05
2.51944e-07
6.29766e-06
7.07665e-06
5.86015e-06
2.96342e-06
1.30059e-05
3.41358e-05
4.29222e-05
4.3154e-05
3.01277e-05
2.40455e-06
4.26341e-06
3.0867e-05
2.48495e-05
3.68146e-06
1.90832e-08
0.00068042
0.00029187
7.5002e-06
3.26991e-07
1.11291e-07
8.50461e-08
6.97195e-09
1.15501e-06
9.19093e-09
9.03841e-09
1.35413e-05
4.32868e-05
4.17339e-05
7.22258e-06
1.53318e-05
6.92413e-05
6.92078e-05
1.01421e-05
2.70454e-08
0.000218547
0.000367269
0.000392153
0.00024515
8.97455e-06
6.97195e-09
7.0071e-09
6.97106e-09
1.33152e-08
9.43265e-09
9.45335e-10
2.94108e-05
4.58683e-05
7.78677e-06
5.60452e-05
6.90277e-05
6.91951e-05
1.25644e-05
3.02088e-08
3.89963e-06
0.000167196
0.000391868
0.000390944
0.000224265
3.37596e-05
1.65919e-06
9.40602e-09
2.79086e-08
1.92828e-08
8.48533e-10
2.69577e-05
4.61908e-05
5.95745e-06
5.9145e-05
6.91707e-05
4.14492e-05
2.78325e-06
3.71076e-08
3.94627e-06
1.05095e-07
8.75211e-05
0.000346249
0.000351938
0.000352424
0.000227138
8.20286e-05
8.69781e-06
3.97347e-08
1.33342e-09
0.000164462
0.000114532
3.21927e-06
7.1239e-06
4.49366e-05
7.46508e-08
4.00787e-08
2.52477e-06
3.0228e-07
1.06781e-07
1.04432e-07
6.44812e-05
0.000280315
0.000333974
0.000332353
0.000330668
0.000252633
0.000114371
0.000168149
0.000214828
0.000113945
2.18907e-07
4.28839e-10
6.49273e-09
2.20292e-07
3.8884e-08
6.8432e-06
5.54369e-08
7.82947e-08
2.03873e-06
2.13596e-08
2.1188e-08
7.26748e-05
0.000269283
0.000324693
0.000325853
0.000325826
0.000320107
0.000214802
1.20532e-05
4.29461e-10
4.69993e-10
4.29461e-10
9.93277e-09
2.5124e-08
6.84221e-06
5.20237e-08
6.1481e-08
3.06459e-08
2.15762e-08
2.14719e-08
2.27037e-08
2.41983e-08
2.30522e-05
6.55055e-05
0.000101122
6.52011e-05
4.84146e-09
5.13358e-09
1.06288e-08
1.03239e-08
7.10902e-09
1.45345e-08
1.45333e-08
6.83516e-06
2.51609e-08
2.55275e-08
2.07268e-08
3.22467e-08
2.99641e-08
5.70886e-08
1.15892e-07
1.17294e-07
4.69022e-08
1.65427e-08
1.65611e-08
1.70284e-08
2.323e-08
2.35519e-08
1.8497e-08
1.34617e-08
1.57331e-08
1.89919e-08
6.83389e-06
1.237e-08
1.33081e-08
1.46299e-08
1.24318e-08
8.64039e-09
7.71874e-08
9.95166e-07
1.04387e-06
8.45526e-07
2.98788e-07
4.88725e-08
2.22185e-08
2.14086e-08
1.85287e-08
1.32758e-08
1.07798e-08
1.62022e-08
1.70847e-08
5.4151e-06
6.31298e-09
7.10748e-09
8.81012e-09
8.23892e-09
8.53954e-09
1.12074e-08
6.54426e-07
1.04284e-06
9.10676e-07
2.12165e-07
2.93501e-08
1.45387e-08
1.06483e-08
9.01253e-09
8.36757e-09
7.38907e-09
1.32901e-08
6.9094e-07
1.69084e-06
2.87518e-09
3.42239e-09
3.69371e-09
5.55465e-09
1.15087e-08
1.42963e-08
4.69286e-09
8.02318e-09
4.3496e-09
8.0316e-09
1.05333e-08
7.64544e-09
5.79252e-09
5.65154e-09
5.47325e-09
4.93697e-09
1.54252e-08
8.76042e-06
2.36877e-06
1.11241e-09
1.3731e-09
1.71484e-09
2.0923e-09
3.30265e-09
4.1651e-09
4.06593e-09
1.57991e-09
2.99236e-09
2.35084e-09
2.72558e-09
2.93876e-09
3.43683e-09
3.9112e-09
3.64578e-09
2.8822e-09
1.38972e-06
1.02169e-05
3.80263e-06
3.48562e-10
4.74983e-10
6.70247e-10
8.42425e-10
9.97766e-10
1.20299e-09
1.46992e-09
1.36804e-09
1.51987e-09
1.584e-09
1.79184e-09
2.14286e-09
2.56414e-09
3.06034e-09
3.0093e-09
2.85551e-09
2.77934e-06
1.0215e-05
3.53745e-06
1.0106e-10
1.51746e-10
2.36421e-10
3.40055e-10
4.60195e-10
5.93261e-10
7.39547e-10
9.03121e-10
1.04835e-09
1.2518e-09
1.51352e-09
1.85307e-09
2.36581e-09
3.40225e-09
3.72861e-09
3.0436e-09
1.35586e-06
9.11336e-06
1.25157e-06
3.33658e-11
5.66812e-11
9.73103e-11
1.57419e-10
2.42446e-10
3.52392e-10
4.84725e-10
6.47216e-10
8.49307e-10
1.11188e-09
1.44783e-09
1.86819e-09
2.71919e-09
5.31329e-09
5.65254e-09
5.52877e-09
5.68048e-09
5.48456e-09
1.24069e-07
1.65985e-11
3.1182e-11
5.81815e-11
1.01225e-10
1.71495e-10
2.72486e-10
4.15325e-10
6.0289e-10
8.50253e-10
1.15755e-09
1.51301e-09
1.96159e-09
3.23309e-09
8.89835e-09
9.17138e-09
1.25673e-08
1.42266e-08
1.46165e-08
1.47155e-08
1.04743e-11
2.19546e-11
4.46823e-11
8.39867e-11
1.47602e-10
2.53715e-10
4.02345e-10
6.12089e-10
8.8749e-10
1.21938e-09
1.59272e-09
1.97838e-09
3.18338e-09
1.27422e-08
4.52541e-08
4.32681e-08
1.73604e-08
1.70033e-08
7.51584e-08
6.88693e-12
1.6065e-11
3.4333e-11
7.02314e-11
1.31488e-10
2.2879e-10
3.81267e-10
5.94968e-10
8.774e-10
1.21234e-09
1.57788e-09
1.92576e-09
2.86283e-09
6.22197e-09
1.76378e-07
2.05831e-07
5.18147e-08
2.97971e-08
2.54374e-07
4.09537e-12
1.05688e-11
2.44244e-11
5.31723e-11
1.0578e-10
1.92574e-10
3.28978e-10
5.24396e-10
7.7837e-10
1.08695e-09
1.44904e-09
1.85954e-09
2.83112e-09
2.96246e-09
1.92506e-07
2.97076e-07
2.30596e-07
1.8427e-07
2.54574e-07
2.20026e-12
6.14268e-12
1.54623e-11
3.54033e-11
7.48361e-11
1.43118e-10
2.48891e-10
4.07624e-10
6.16391e-10
8.69144e-10
1.18188e-09
1.60974e-09
2.41159e-09
4.8423e-09
1.33184e-08
2.80725e-07
3.044e-07
3.04625e-07
2.36787e-07
1.00375e-12
3.06946e-12
8.35142e-12
2.04466e-11
4.61792e-11
9.32036e-11
1.65777e-10
2.76643e-10
4.21777e-10
6.06658e-10
8.31235e-10
1.15278e-09
1.79635e-09
3.2525e-09
3.32173e-09
1.00041e-07
3.04203e-07
3.03249e-07
3.89273e-08
3.98738e-13
1.31663e-12
3.8252e-12
1.02615e-11
2.42861e-11
4.99738e-11
9.34863e-11
1.61032e-10
2.54582e-10
3.71692e-10
5.15575e-10
7.09947e-10
1.0982e-09
1.99297e-09
3.6635e-09
2.62522e-09
2.0531e-07
2.84954e-07
2.6509e-08
1.3886e-13
4.83729e-13
1.51178e-12
4.33043e-12
1.07334e-11
2.26248e-11
4.43814e-11
8.04103e-11
1.32908e-10
2.04097e-10
2.91788e-10
4.02161e-10
6.00263e-10
1.08699e-09
2.18591e-09
2.59112e-09
2.54349e-09
8.13337e-08
1.82929e-08
3.99952e-14
1.5227e-13
5.05815e-13
1.52095e-12
3.88452e-12
8.74118e-12
1.83145e-11
3.48084e-11
6.11907e-11
9.91489e-11
1.47858e-10
2.07149e-10
3.01198e-10
5.52426e-10
1.16005e-09
1.85093e-09
7.3615e-10
8.62026e-10
9.08825e-09
1.05037e-14
4.11601e-14
1.37436e-13
4.01193e-13
1.04977e-12
2.50341e-12
5.67861e-12
1.24447e-11
2.45884e-11
4.3695e-11
6.87509e-11
9.72442e-11
1.34369e-10
2.33472e-10
5.06717e-10
1.02185e-09
7.85796e-10
4.62971e-09
5.62333e-09
2.08761e-15
8.7885e-15
3.00694e-14
9.4197e-14
2.71196e-13
7.36581e-13
1.84262e-12
4.2635e-12
9.15537e-12
1.75551e-11
2.95066e-11
4.28693e-11
5.79311e-11
9.01394e-11
1.85255e-10
3.91259e-10
6.66923e-10
1.24101e-09
5.14019e-09
3.67038e-16
1.50679e-15
5.27247e-15
1.78835e-14
5.823e-14
1.77763e-13
5.08217e-13
1.30618e-12
3.05897e-12
6.40873e-12
1.17981e-11
1.79378e-11
2.36767e-11
3.54653e-11
7.63034e-11
1.74194e-10
3.21207e-10
1.06199e-09
3.39822e-09
5.16437e-17
1.99464e-16
7.50248e-16
2.86929e-15
1.05487e-14
3.61105e-14
1.11306e-13
3.11781e-13
7.94463e-13
1.73494e-12
3.14626e-12
4.53961e-12
6.20792e-12
8.72891e-12
1.87038e-11
4.67483e-11
1.25661e-10
3.52979e-10
6.41258e-10
)
;

boundaryField
{
    leftWall
    {
        type            zeroGradient;
    }
    rightWall
    {
        type            zeroGradient;
    }
    lowerWall
    {
        type            zeroGradient;
    }
    atmosphere
    {
        type            inletOutlet;
        inletValue      uniform 0;
        value           nonuniform List<scalar> 
46
(
3.23742e-09
5.37511e-09
6.68196e-09
6.89468e-09
7.18583e-09
8.15258e-09
4.85435e-09
7.59004e-10
1.47172e-10
2.85117e-11
5.30958e-12
9.3362e-13
1.54575e-13
2.54168e-14
4.38003e-15
7.83353e-16
1.35292e-16
2.18334e-17
3.36124e-18
6.21398e-19
1.59755e-19
4.78896e-20
6.63584e-20
5.04121e-19
1.95786e-18
7.10828e-18
2.18958e-17
0
0
0
0
0
0
0
0
0
0
0
0
0
0
0
0
0
0
0
)
;
    }
    defaultFaces
    {
        type            empty;
    }
}


// ************************************************************************* //
