/*--------------------------------*- C++ -*----------------------------------*\
| =========                 |                                                 |
| \\      /  F ield         | OpenFOAM: The Open Source CFD Toolbox           |
|  \\    /   O peration     | Version:  2312                                  |
|   \\  /    A nd           | Website:  www.openfoam.com                      |
|    \\/     M anipulation  |                                                 |
\*---------------------------------------------------------------------------*/
FoamFile
{
    version     2.0;
    format      ascii;
    arch        "LSB;label=32;scalar=64";
    class       surfaceScalarField;
    location    "1.9";
    object      phi;
}
// * * * * * * * * * * * * * * * * * * * * * * * * * * * * * * * * * * * * * //

dimensions      [0 3 -1 0 0 0 0];

oriented        oriented;

internalField   nonuniform List<scalar> 
4432
(
8.62353e-07
-8.62355e-07
-2.00967e-07
1.06332e-06
-1.83249e-06
1.63152e-06
-3.67607e-06
1.84358e-06
-5.53634e-06
1.86027e-06
-7.3742e-06
1.83785e-06
-8.95531e-06
1.58111e-06
-1.00159e-05
1.06055e-06
-1.03742e-05
3.58298e-07
-1.00423e-05
-3.31894e-07
-9.16925e-06
-8.73011e-07
-7.92618e-06
-1.24306e-06
-6.48686e-06
-1.43932e-06
-5.0525e-06
-1.43436e-06
-3.78179e-06
-1.27071e-06
-2.75643e-06
-1.02536e-06
-1.98401e-06
-7.72421e-07
-1.41443e-06
-5.69583e-07
-9.92179e-07
-4.2225e-07
-6.90285e-07
-3.01894e-07
-4.83588e-07
-2.06697e-07
-3.81207e-07
-1.02382e-07
-3.81206e-07
-4.77311e-07
-3.85049e-07
-1.43859e-06
2.02459e-06
-2.87131e-06
3.06423e-06
-4.39395e-06
3.36622e-06
-6.09231e-06
3.55862e-06
-7.86152e-06
3.60706e-06
-9.43565e-06
3.15524e-06
-1.05046e-05
2.12954e-06
-1.08519e-05
7.05572e-07
-1.04677e-05
-7.16099e-07
-9.52632e-06
-1.81441e-06
-8.21449e-06
-2.55489e-06
-6.71551e-06
-2.93831e-06
-5.24034e-06
-2.90953e-06
-3.94751e-06
-2.56353e-06
-2.91648e-06
-2.05639e-06
-2.14746e-06
-1.54144e-06
-1.58062e-06
-1.13643e-06
-1.15522e-06
-8.47645e-07
-8.52263e-07
-6.04857e-07
-6.41833e-07
-4.17128e-07
-5.68075e-07
-1.76141e-07
-9.49283e-07
-1.53177e-06
1.14672e-06
-2.66918e-06
3.16199e-06
-3.97885e-06
4.37391e-06
-5.29894e-06
4.68631e-06
-6.87192e-06
5.1316e-06
-8.59488e-06
5.33001e-06
-1.01931e-05
4.75348e-06
-1.12796e-05
3.21602e-06
-1.15784e-05
1.00433e-06
-1.10817e-05
-1.21275e-06
-9.99856e-06
-2.89756e-06
-8.56612e-06
-3.98734e-06
-6.956e-06
-4.54843e-06
-5.39949e-06
-4.46603e-06
-4.05646e-06
-3.90656e-06
-2.99635e-06
-3.1165e-06
-2.19756e-06
-2.34024e-06
-1.57896e-06
-1.75503e-06
-1.08566e-06
-1.34095e-06
-7.32919e-07
-9.57596e-07
-4.9638e-07
-6.53667e-07
-3.83218e-07
-2.89304e-07
-1.3325e-06
-2.36044e-06
3.50716e-06
-3.79324e-06
4.59478e-06
-5.01294e-06
5.59361e-06
-6.10509e-06
5.77845e-06
-7.5415e-06
6.56801e-06
-9.25502e-06
7.04354e-06
-1.09271e-05
6.42559e-06
-1.2065e-05
4.35392e-06
-1.22948e-05
1.23414e-06
-1.16224e-05
-1.88522e-06
-1.0349e-05
-4.17095e-06
-8.75435e-06
-5.58197e-06
-6.9801e-06
-6.32267e-06
-5.30228e-06
-6.14385e-06
-3.87848e-06
-5.33036e-06
-2.75177e-06
-4.24321e-06
-1.87114e-06
-3.22087e-06
-1.14176e-06
-2.4844e-06
-5.55474e-07
-1.92724e-06
-1.87887e-07
-1.32518e-06
-1.98496e-08
-8.21707e-07
1.32768e-07
-4.41924e-07
-1.19973e-06
-2.23954e-06
5.74671e-06
-3.51284e-06
5.86808e-06
-4.86206e-06
6.94283e-06
-6.14882e-06
7.06521e-06
-7.76746e-06
8.18665e-06
-9.63947e-06
8.91554e-06
-1.14887e-05
8.2748e-06
-1.27598e-05
5.62503e-06
-1.29703e-05
1.44462e-06
-1.21178e-05
-2.73764e-06
-1.05724e-05
-5.71642e-06
-8.7276e-06
-7.42673e-06
-6.69536e-06
-8.35492e-06
-4.81647e-06
-8.02275e-06
-3.25313e-06
-6.8937e-06
-2.04178e-06
-5.45457e-06
-1.09436e-06
-4.16828e-06
-3.08781e-07
-3.26999e-06
1.97372e-07
-2.43339e-06
4.4837e-07
-1.57618e-06
4.45325e-07
-8.1866e-07
4.99212e-07
-4.9581e-07
-7.00518e-07
-1.69555e-06
7.44225e-06
-3.0818e-06
7.25433e-06
-5.04356e-06
8.9046e-06
-6.81708e-06
8.83873e-06
-8.57832e-06
9.94788e-06
-1.04608e-05
1.0798e-05
-1.22665e-05
1.00804e-05
-1.3539e-05
6.89756e-06
-1.37859e-05
1.69157e-06
-1.2905e-05
-3.6186e-06
-1.10843e-05
-7.53715e-06
-8.91183e-06
-9.59915e-06
-6.49974e-06
-1.0767e-05
-4.37969e-06
-1.01428e-05
-2.76913e-06
-8.50426e-06
-1.64524e-06
-6.57845e-06
-7.44172e-07
-5.06935e-06
-8.79457e-09
-4.00537e-06
3.8808e-07
-2.83027e-06
3.80078e-07
-1.56818e-06
-1.04873e-08
-4.281e-07
-6.93448e-08
-4.36958e-07
-7.69873e-07
-6.9901e-06
1.44323e-05
-1.08517e-05
1.11159e-05
-1.129e-05
9.34289e-06
-1.194e-05
9.48879e-06
-1.26073e-05
1.06151e-05
-1.37685e-05
1.19593e-05
-1.52605e-05
1.15725e-05
-1.63636e-05
8.00066e-06
-1.60792e-05
1.4071e-06
-1.4194e-05
-5.50381e-06
-1.17939e-05
-9.93717e-06
-9.42583e-06
-1.19673e-05
-6.91598e-06
-1.32769e-05
-4.73373e-06
-1.2325e-05
-2.61615e-06
-1.06218e-05
-3.79746e-07
-8.81485e-06
1.58379e-06
-7.03289e-06
1.37801e-06
-3.79959e-06
-1.00931e-06
-4.42963e-07
-4.00714e-06
1.42964e-06
-5.77798e-06
1.34273e-06
-4.75459e-06
-1.46037e-06
-5.52447e-06
-9.45116e-06
2.38835e-05
-2.0062e-05
2.17267e-05
-2.18702e-05
1.1151e-05
-2.10091e-05
8.6277e-06
-1.97178e-05
9.3238e-06
-1.83623e-05
1.06038e-05
-1.71893e-05
1.03995e-05
-1.56874e-05
6.49867e-06
-1.46629e-05
3.8262e-07
-1.34668e-05
-6.69987e-06
-1.09382e-05
-1.24658e-05
-7.83109e-06
-1.50743e-05
-4.50091e-06
-1.6607e-05
-2.24328e-06
-1.45827e-05
-1.2947e-06
-1.15704e-05
-3.85832e-07
-9.72371e-06
1.02894e-06
-8.44766e-06
2.2522e-06
-5.02286e-06
1.84472e-06
-3.54878e-08
8.41692e-08
3.19018e-06
-1.82209e-06
3.24898e-06
-2.57057e-06
-7.11893e-07
-8.09505e-06
-1.04996e-05
1.04996e-05
-1.72643e-05
6.76468e-06
-1.92565e-05
1.99216e-06
-1.74827e-05
-1.77375e-06
-1.49499e-05
-2.53279e-06
-1.17276e-05
-3.2223e-06
-6.64392e-06
-5.08372e-06
-4.45545e-06
-2.18847e-06
-4.44763e-06
-7.81477e-09
-5.35927e-06
9.11637e-07
-5.79106e-06
4.31799e-07
-6.30515e-06
5.14085e-07
-7.66898e-06
1.36384e-06
-8.93265e-06
1.26367e-06
-9.72878e-06
7.96134e-07
-9.1959e-06
-5.3288e-07
-8.26848e-06
-9.27416e-07
-5.25603e-06
-3.01245e-06
-5.25603e-06
-1.76985e-06
1.22695e-05
-4.38723e-06
9.38206e-06
-6.35107e-06
3.956e-06
-7.2636e-06
-8.6121e-07
-6.1818e-06
-3.61459e-06
-1.98039e-06
-7.4237e-06
3.21193e-06
-1.0276e-05
6.59134e-06
-5.56789e-06
6.38984e-06
1.93696e-07
2.28551e-06
5.01596e-06
-2.45963e-06
5.17695e-06
-4.40189e-06
2.45635e-06
-5.14846e-06
2.11041e-06
-6.05731e-06
2.17252e-06
-7.15866e-06
1.89749e-06
-8.47166e-06
7.80131e-07
-8.8722e-06
-5.26872e-07
-6.51885e-06
-5.3658e-06
-1.17749e-05
3.26464e-06
9.00486e-06
2.98158e-06
9.66511e-06
4.49242e-06
2.44516e-06
4.68325e-06
-1.05204e-06
5.98064e-06
-4.91197e-06
8.5775e-06
-1.00206e-05
1.17963e-05
-1.34948e-05
1.69127e-05
-1.06843e-05
2.03223e-05
-3.21594e-06
1.71433e-05
8.19496e-06
9.7022e-06
1.2618e-05
2.79392e-06
9.36463e-06
-1.69108e-06
6.59542e-06
-3.00324e-06
3.48468e-06
-3.87573e-06
2.76998e-06
-6.45334e-06
3.35775e-06
-5.97057e-06
-1.00964e-06
-3.65502e-06
-7.68135e-06
-1.54299e-05
1.82544e-06
7.17942e-06
3.96048e-06
7.53007e-06
7.69458e-06
-1.28893e-06
1.03275e-05
-3.68498e-06
1.50228e-05
-9.60728e-06
1.87664e-05
-1.37641e-05
1.85302e-05
-1.32587e-05
1.84707e-05
-1.06247e-05
2.06991e-05
-5.4444e-06
1.96419e-05
9.2522e-06
1.58813e-05
1.63787e-05
7.25993e-06
1.7986e-05
-6.44371e-06
2.02991e-05
-1.38927e-05
1.09337e-05
-8.03079e-06
-3.09186e-06
-4.1693e-06
-5.03711e-07
-1.04328e-07
-5.07459e-06
1.48506e-06
-9.27072e-06
-1.39448e-05
-3.24124e-06
1.04207e-05
2.42587e-06
1.86297e-06
6.44467e-06
-5.30773e-06
1.25198e-05
-9.76012e-06
1.91251e-05
-1.62125e-05
2.266e-05
-1.7299e-05
2.17415e-05
-1.23402e-05
1.6779e-05
-5.66219e-06
1.31526e-05
-1.81795e-06
1.07844e-05
1.16204e-05
1.54022e-06
2.56229e-05
-8.88136e-06
2.84076e-05
-1.64143e-05
2.78321e-05
-1.9093e-05
1.36124e-05
-9.76471e-06
-1.24202e-05
-7.92514e-06
-2.34328e-06
-2.46895e-06
-1.05308e-05
4.22113e-06
-1.59608e-05
-9.7237e-06
4.91331e-06
5.50734e-06
8.71261e-06
-1.93633e-06
8.54488e-06
-5.14e-06
1.11689e-05
-1.23842e-05
1.6186e-05
-2.12296e-05
1.82435e-05
-1.93565e-05
1.51079e-05
-9.20462e-06
9.65978e-06
-2.14066e-07
3.78983e-06
4.05201e-06
-5.27662e-06
2.06869e-05
-1.36444e-05
3.39907e-05
-1.50525e-05
2.98158e-05
-1.56484e-05
2.8428e-05
-1.47232e-05
1.26872e-05
-1.11055e-05
-1.60379e-05
-1.02911e-05
-3.15767e-06
-6.48815e-06
-1.43337e-05
6.91215e-07
-2.31401e-05
-9.03246e-06
1.3037e-05
-7.52962e-06
1.11201e-05
-1.95076e-08
4.87239e-06
1.10775e-06
2.68528e-06
-1.01971e-05
4.65177e-06
-2.3196e-05
4.04287e-06
-1.87476e-05
5.09021e-07
-5.67076e-06
-4.05047e-06
4.34544e-06
-1.0239e-05
1.02405e-05
-1.87778e-05
2.92257e-05
-1.89013e-05
3.41142e-05
-1.58056e-05
2.67201e-05
-1.24532e-05
2.50756e-05
-1.28184e-05
1.30524e-05
-1.45279e-05
-1.43284e-05
-1.2347e-05
-5.33853e-06
-8.87132e-06
-1.78094e-05
-2.86953e-06
-2.91419e-05
-1.1902e-05
-8.42637e-08
-7.44536e-06
-1.34535e-05
1.33497e-05
-2.01392e-05
7.79349e-06
-1.58462e-05
-1.44901e-05
-1.49768e-05
-2.40655e-05
-1.41218e-05
-1.96026e-05
-1.45242e-05
-5.26837e-06
-1.92485e-05
9.06978e-06
-2.61107e-05
1.71028e-05
-2.65036e-05
2.96186e-05
-2.10215e-05
2.86322e-05
-1.47648e-05
2.04634e-05
-9.75876e-06
2.00696e-05
-1.22795e-05
1.55731e-05
-1.72462e-05
-9.36162e-06
-1.52429e-05
-7.34179e-06
-1.05706e-05
-2.24817e-05
-3.65424e-06
-3.60583e-05
-1.55562e-05
-9.43158e-07
2.48266e-05
-1.60655e-05
3.6849e-05
-2.9951e-05
2.50365e-05
-3.61266e-05
1.48033e-05
-3.81363e-05
1.13335e-05
-3.6834e-05
9.30144e-06
-3.3469e-05
7.03453e-06
-2.59612e-05
-1.00906e-06
-1.9668e-05
-5.91059e-06
-1.45649e-05
-1.1803e-05
-1.03286e-05
-1.67021e-05
-5.89343e-06
-1.95095e-05
-1.69716e-06
-2.08033e-05
3.43911e-06
-1.97189e-05
9.64594e-06
-1.77773e-05
1.58417e-05
-1.59195e-05
1.98833e-05
-1.24893e-05
2.07579e-05
-5.8975e-06
1.8569e-05
2.15349e-06
1.24511e-05
9.30806e-06
2.62415e-06
1.30759e-05
-1.10117e-05
1.2924e-05
1.00246e-05
-2.91313e-05
1.49077e-05
9.91895e-06
1.09583e-05
4.07984e-05
2.07745e-07
3.57871e-05
-8.26046e-06
2.32715e-05
-1.05655e-05
1.36385e-05
-9.14156e-06
7.87754e-06
-4.33911e-06
2.23208e-06
1.00847e-06
-6.35663e-06
3.93808e-06
-8.8402e-06
7.4422e-06
-1.53071e-05
1.21342e-05
-2.1394e-05
1.70196e-05
-2.43949e-05
2.22824e-05
-2.60661e-05
2.86778e-05
-2.61143e-05
3.51087e-05
-2.42081e-05
3.97703e-05
-2.05811e-05
4.16925e-05
-1.44114e-05
4.10946e-05
-5.29963e-06
3.61662e-05
7.08182e-06
2.8771e-05
1.67033e-05
1.95236e-05
2.23233e-05
9.1311e-06
2.33165e-05
2.10887e-05
-1.93307e-06
1.81003e-05
-8.18134e-06
1.3366e-05
4.55327e-05
1.22552e-05
3.68979e-05
1.00545e-05
2.54723e-05
1.33227e-05
1.03703e-05
2.2394e-05
-1.19377e-06
3.57305e-05
-1.11044e-05
4.61274e-05
-1.67535e-05
5.39334e-05
-1.66462e-05
5.64886e-05
-1.78623e-05
5.6813e-05
-2.17185e-05
5.68605e-05
-2.44425e-05
5.7782e-05
-2.69876e-05
6.01492e-05
-2.84816e-05
6.25114e-05
-2.65703e-05
6.36279e-05
-2.16977e-05
6.19404e-05
-1.2724e-05
5.81191e-05
-1.47827e-06
5.22373e-05
1.29636e-05
4.24201e-05
2.65204e-05
2.81467e-05
3.65967e-05
8.71825e-06
4.27449e-05
4.38405e-05
-1.40335e-05
1.11141e-05
-1.92954e-05
5.01997e-06
5.16268e-05
3.35881e-06
3.85591e-05
3.31486e-06
2.55162e-05
9.56106e-06
4.12408e-06
2.37376e-05
-1.53704e-05
3.76447e-05
-2.50114e-05
5.01558e-05
-2.92647e-05
6.34637e-05
-2.99541e-05
7.56578e-05
-3.00564e-05
8.40801e-05
-3.01407e-05
8.86371e-05
-2.89994e-05
8.97288e-05
-2.80793e-05
8.84112e-05
-2.7164e-05
8.68988e-05
-2.50579e-05
8.63836e-05
-2.11824e-05
8.56088e-05
-1.19492e-05
8.2283e-05
1.84748e-06
7.33192e-05
2.19275e-05
6.05977e-05
3.9242e-05
4.16646e-05
5.55298e-05
1.60364e-05
6.83731e-05
7.38697e-05
-1.39928e-05
3.83852e-06
-2.31339e-05
6.24366e-06
4.92217e-05
7.2281e-06
3.75746e-05
1.03581e-05
2.23863e-05
1.5463e-05
-9.80841e-07
2.43147e-05
-2.4222e-05
3.27822e-05
-3.3479e-05
4.12345e-05
-3.7717e-05
5.07276e-05
-3.94471e-05
6.08861e-05
-4.0215e-05
6.99921e-05
-3.92468e-05
7.68587e-05
-3.5866e-05
8.17673e-05
-3.2988e-05
8.45585e-05
-2.99552e-05
8.53662e-05
-2.58657e-05
8.98035e-05
-2.562e-05
9.31879e-05
-1.53338e-05
8.92806e-05
5.75447e-06
7.91057e-05
3.21021e-05
6.37138e-05
5.46338e-05
4.2893e-05
7.63504e-05
6.3505e-06
0.000104916
0.000109939
-2.97192e-05
-1.69928e-06
-2.14347e-05
1.55245e-05
3.19979e-05
2.12069e-05
3.18922e-05
2.93241e-05
1.42691e-05
3.502e-05
-6.67677e-06
3.44957e-05
-2.36978e-05
3.20332e-05
-3.10165e-05
3.26351e-05
-3.83188e-05
3.83416e-05
-4.51536e-05
4.73222e-05
-4.91956e-05
5.72936e-05
-4.92182e-05
6.61179e-05
-4.46902e-05
8.11862e-05
-4.80563e-05
0.000110234
-5.90031e-05
9.25421e-05
-8.17475e-06
6.80013e-05
-1.08031e-06
3.76993e-05
1.49673e-05
7.26368e-06
3.61891e-05
-2.13934e-05
6.07586e-05
-3.44823e-05
6.77223e-05
-3.7456e-05
7.93239e-05
-6.05717e-05
0.000128031
0.000126265
-7.68974e-05
-9.81009e-06
-1.16246e-05
1.19824e-05
1.02055e-05
2.52757e-05
1.85989e-05
3.80982e-05
1.44664e-06
4.60124e-05
-1.4591e-05
4.33769e-05
-2.10622e-05
3.30612e-05
-2.07008e-05
2.76979e-05
-3.29554e-05
3.5985e-05
-5.34407e-05
5.20551e-05
-6.52656e-05
7.45547e-05
-7.17178e-05
9.05649e-05
-6.07005e-05
8.83357e-05
-4.58273e-05
4.16521e-05
-1.23203e-05
-1.71055e-05
5.05816e-05
-7.50362e-05
5.68495e-05
-0.000120881
6.08113e-05
-0.000164332
7.964e-05
-0.000206256
0.000102682
-0.000230849
9.23173e-05
-0.000235395
8.387e-05
-0.000208627
0.000101263
8.40865e-05
-0.000166448
-2.35631e-05
1.19388e-05
-3.28282e-06
-1.00747e-05
2.11569e-05
-5.84074e-06
3.88996e-05
-1.62959e-05
5.06863e-05
-2.63777e-05
5.52534e-05
-2.56293e-05
5.62247e-05
-2.16721e-05
4.30003e-05
-1.97311e-05
4.57242e-05
-5.61647e-05
5.51136e-05
-7.46553e-05
6.27099e-05
-7.93144e-05
5.68259e-05
-5.48169e-05
4.21129e-07
1.0577e-05
-9.71726e-05
8.52726e-05
-0.000154251
0.00010766
-0.000209753
0.000112351
-0.000277429
0.000128488
-0.000345943
0.000148154
-0.000404602
0.000161342
-0.000440276
0.000127994
-0.000397946
4.15405e-05
-0.000293793
-2.89098e-06
5.45769e-06
-0.000215165
-9.82888e-07
1.29221e-05
8.76876e-07
-1.1934e-05
1.00801e-05
-1.50436e-05
8.71323e-06
-1.49287e-05
-3.34436e-06
-1.43199e-05
-1.41581e-05
-1.48155e-05
-9.92124e-06
-2.59089e-05
9.77607e-06
-3.94285e-05
9.82236e-06
-5.62111e-05
-1.05546e-05
-5.42787e-05
-5.09773e-05
-3.88922e-05
-0.000105811
1.57869e-08
-0.000149421
5.4187e-05
-0.000165642
0.000101493
-0.000191644
0.000133661
-0.000233215
0.000153922
-0.000282502
0.000177776
-0.000333819
0.000199472
-0.000367803
0.000195326
-0.000347874
0.000108064
-0.000294575
-1.17591e-05
-0.000268531
-2.89354e-05
-2.54098e-05
-0.000237663
1.59095e-05
-2.98681e-06
1.57706e-05
-1.17946e-05
1.60807e-05
-1.53533e-05
1.58158e-05
-1.46635e-05
1.28902e-05
-1.1394e-05
1.01128e-05
-1.2038e-05
2.07878e-06
-1.78748e-05
-1.35725e-05
-2.37771e-05
-4.46135e-05
-2.51702e-05
-7.80649e-05
-2.08274e-05
-0.000111667
-5.29074e-06
-0.000137795
2.61435e-05
-0.000153046
6.94383e-05
-0.000165831
0.000114278
-0.000180489
0.000148319
-0.00020277
0.000176203
-0.000227139
0.000202146
-0.000246897
0.00021923
-0.000266422
0.000214852
-0.000260614
0.000102256
-0.000261694
-1.06808e-05
-0.000253349
-3.728e-05
-3.78745e-05
-0.000240884
1.02144e-05
-1.32009e-05
1.24329e-05
-1.40128e-05
1.10215e-05
-1.39415e-05
8.52121e-06
-1.2163e-05
6.48537e-06
-9.358e-06
-3.45903e-07
-5.20655e-06
-2.23405e-05
4.11988e-06
-4.82444e-05
2.12683e-06
-7.11062e-05
-2.30845e-06
-9.01458e-05
-1.78789e-06
-0.000107679
1.22427e-05
-0.00012373
4.21936e-05
-0.000134757
8.04658e-05
-0.000140677
0.000120197
-0.00014674
0.000154382
-0.000154292
0.000183756
-0.000159194
0.000207048
-0.000155812
0.000215848
-0.000155286
0.000214327
-0.000194245
0.000141214
-0.00023776
3.28341e-05
-0.000248061
-2.69807e-05
-5.61133e-05
-0.000229823
6.16898e-06
-1.93694e-05
7.55875e-06
-1.54021e-05
5.52083e-06
-1.19033e-05
-5.81449e-08
-6.58381e-06
-1.13189e-05
1.90295e-06
-2.75923e-05
1.1067e-05
-4.21831e-05
1.87107e-05
-5.31455e-05
1.30893e-05
-6.26696e-05
7.21571e-06
-7.67259e-05
1.22684e-05
-9.33474e-05
2.88641e-05
-0.000105294
5.41403e-05
-0.000110874
8.60454e-05
-0.000110903
0.000120226
-0.000108616
0.000152095
-0.000105092
0.000180231
-9.90961e-05
0.000201053
-8.61785e-05
0.000202931
-6.17595e-05
0.000189908
-6.92963e-05
0.000148751
-0.000115343
7.88805e-05
-0.000168283
2.59596e-05
-1.74842e-05
-0.000206912
1.29573e-06
-2.06649e-05
4.06214e-08
-1.41468e-05
-4.46211e-06
-7.40036e-06
-1.22002e-05
1.1545e-06
-2.24212e-05
1.21241e-05
-3.23353e-05
2.09812e-05
-3.80062e-05
2.43817e-05
-4.38641e-05
1.89473e-05
-5.35123e-05
1.68639e-05
-6.69281e-05
2.56844e-05
-7.93852e-05
4.13213e-05
-8.73094e-05
6.20646e-05
-8.87261e-05
8.74621e-05
-8.4071e-05
0.000115571
-7.51791e-05
0.000143203
-6.31851e-05
0.000168237
-4.92245e-05
0.000187092
-3.47643e-05
0.00018847
-1.54575e-05
0.000170601
-6.83728e-06
0.000140131
-1.79383e-05
8.99813e-05
-3.7131e-05
4.5153e-05
2.30092e-05
-7.76246e-05
-3.26371e-06
-1.74008e-05
-8.26964e-06
-9.14056e-06
-1.52097e-05
-4.60088e-07
-2.31024e-05
9.04734e-06
-2.92665e-05
1.82884e-05
-3.34655e-05
2.51804e-05
-3.64806e-05
2.73969e-05
-4.26735e-05
2.51403e-05
-5.30206e-05
2.72112e-05
-6.32335e-05
3.58973e-05
-7.02201e-05
4.8308e-05
-7.30145e-05
6.48591e-05
-7.06047e-05
8.50524e-05
-6.25887e-05
0.000107555
-4.96276e-05
0.000130242
-3.24984e-05
0.000151108
-1.27291e-05
0.000167323
4.18121e-06
0.00017156
1.86891e-05
0.000156093
3.12168e-05
0.000127603
3.21436e-05
8.90541e-05
2.51807e-05
5.21159e-05
2.86668e-05
1.95226e-05
-7.74424e-06
-9.65646e-06
-1.66067e-05
-2.77943e-07
-2.53593e-05
8.29272e-06
-3.23036e-05
1.59918e-05
-3.67747e-05
2.27596e-05
-3.95489e-05
2.79547e-05
-4.25778e-05
3.0426e-05
-4.8162e-05
3.07246e-05
-5.46859e-05
3.37352e-05
-5.94071e-05
4.06187e-05
-6.1813e-05
5.0714e-05
-6.09708e-05
6.40171e-05
-5.59399e-05
8.00215e-05
-4.6104e-05
9.77195e-05
-3.15066e-05
0.000115644
-1.25568e-05
0.000132158
9.71877e-06
0.000145047
3.19917e-05
0.000149287
4.95092e-05
0.000138575
6.11692e-05
0.000115943
6.3599e-05
8.66242e-05
5.91343e-05
5.65802e-05
3.18439e-05
5.59571e-05
-1.28855e-05
3.22931e-06
-2.47223e-05
1.1559e-05
-3.37685e-05
1.73391e-05
-3.9749e-05
2.19724e-05
-4.32704e-05
2.6281e-05
-4.51984e-05
2.98829e-05
-4.6833e-05
3.20607e-05
-4.9451e-05
3.33427e-05
-5.20348e-05
3.63192e-05
-5.34268e-05
4.20108e-05
-5.30215e-05
5.03088e-05
-5.00232e-05
6.10189e-05
-4.36392e-05
7.36376e-05
-3.32906e-05
8.7371e-05
-1.87846e-05
0.000101138
-2.76176e-07
0.00011365
2.14454e-05
0.000123326
4.39815e-05
0.00012675
6.27988e-05
0.000119758
7.57159e-05
0.000103026
8.12038e-05
8.11362e-05
8.07113e-05
5.70729e-05
3.40008e-05
7.85543e-05
-1.54487e-05
1.8678e-05
-2.73622e-05
2.34725e-05
-3.58366e-05
2.58136e-05
-4.15055e-05
2.76414e-05
-4.46931e-05
2.94687e-05
-4.59967e-05
3.11866e-05
-4.64092e-05
3.24734e-05
-4.68422e-05
3.37758e-05
-4.70286e-05
3.65057e-05
-4.63565e-05
4.13389e-05
-4.42538e-05
4.82063e-05
-4.00642e-05
5.68294e-05
-3.31664e-05
6.67399e-05
-2.30899e-05
7.72947e-05
-9.6229e-06
8.76715e-05
7.15591e-06
9.68712e-05
2.66913e-05
0.00010379
4.72672e-05
0.000106175
6.54942e-05
0.000101531
7.89426e-05
8.95774e-05
8.69482e-05
7.31308e-05
9.03989e-05
5.36222e-05
3.33524e-05
9.10473e-05
-1.43639e-05
3.30421e-05
-2.53268e-05
3.44356e-05
-3.3394e-05
3.38808e-05
-3.88153e-05
3.30628e-05
-4.18153e-05
3.24688e-05
-4.28534e-05
3.22247e-05
-4.27121e-05
3.23322e-05
-4.21019e-05
3.31658e-05
-4.10483e-05
3.54522e-05
-3.92092e-05
3.94999e-05
-3.61436e-05
4.51409e-05
-3.1367e-05
5.2053e-05
-2.44294e-05
5.98024e-05
-1.49892e-05
6.78546e-05
-2.88819e-06
7.55706e-05
1.17662e-05
8.22169e-05
2.86131e-05
8.69436e-05
4.64253e-05
8.83626e-05
6.29279e-05
8.50286e-05
7.61063e-05
7.63991e-05
8.53707e-05
6.38665e-05
9.0723e-05
4.82703e-05
3.12536e-05
9.2822e-05
-1.23057e-05
4.53477e-05
-2.21288e-05
4.42587e-05
-2.95136e-05
4.12656e-05
-3.45223e-05
3.80716e-05
-3.73094e-05
3.52559e-05
-3.8245e-05
3.31604e-05
-3.79143e-05
3.20016e-05
-3.68389e-05
3.20905e-05
-3.51425e-05
3.37559e-05
-3.26483e-05
3.70059e-05
-2.90765e-05
4.15692e-05
-2.40952e-05
4.70718e-05
-1.73949e-05
5.31023e-05
-8.74635e-06
5.92062e-05
1.95816e-06
6.48662e-05
1.45778e-05
6.95974e-05
2.883e-05
7.26916e-05
4.3837e-05
7.33557e-05
5.81684e-05
7.06974e-05
7.02999e-05
6.42678e-05
7.9541e-05
5.46257e-05
8.5464e-05
4.23474e-05
2.86465e-05
8.80713e-05
-1.03937e-05
5.57415e-05
-1.90509e-05
5.29159e-05
-2.56973e-05
4.79121e-05
-3.02539e-05
4.26282e-05
-3.28167e-05
3.78188e-05
-3.36718e-05
3.40155e-05
-3.32431e-05
3.1573e-05
-3.19096e-05
3.07571e-05
-2.98286e-05
3.1675e-05
-2.69605e-05
3.41378e-05
-2.31551e-05
3.77639e-05
-1.82016e-05
4.21184e-05
-1.18977e-05
4.67985e-05
-4.09736e-06
5.1406e-05
5.23761e-06
5.55314e-05
1.60296e-05
5.88056e-05
2.79905e-05
6.07309e-05
4.05157e-05
6.08307e-05
5.26567e-05
5.85566e-05
6.33447e-05
5.35799e-05
7.18563e-05
4.61143e-05
7.76566e-05
3.65473e-05
2.5747e-05
8.05563e-05
-8.81551e-06
6.45569e-05
-1.64213e-05
6.05216e-05
-2.23762e-05
5.38669e-05
-2.65153e-05
4.67673e-05
-2.88705e-05
4.0174e-05
-2.96377e-05
3.47828e-05
-2.91154e-05
3.10508e-05
-2.75943e-05
2.9236e-05
-2.52613e-05
2.93421e-05
-2.21812e-05
3.10578e-05
-1.82974e-05
3.38803e-05
-1.34997e-05
3.73208e-05
-7.66495e-06
4.09639e-05
-7.06694e-07
4.44479e-05
7.38058e-06
4.74443e-05
1.65322e-05
4.96541e-05
2.65084e-05
5.07548e-05
3.69006e-05
5.04386e-05
4.70544e-05
4.84029e-05
5.62201e-05
4.44145e-05
6.3782e-05
3.85525e-05
6.92466e-05
3.10829e-05
2.25949e-05
7.23991e-05
-7.48935e-06
7.20463e-05
-1.41798e-05
6.7212e-05
-1.95282e-05
5.92154e-05
-2.33121e-05
5.05512e-05
-2.54964e-05
4.23584e-05
-2.61881e-05
3.54745e-05
-2.55867e-05
3.04494e-05
-2.39266e-05
2.7576e-05
-2.14252e-05
2.68408e-05
-1.82228e-05
2.78555e-05
-1.43472e-05
3.00048e-05
-9.76336e-06
3.2737e-05
-4.40698e-06
3.56076e-05
1.76817e-06
3.82729e-05
8.74498e-06
4.04676e-05
1.64721e-05
4.19271e-05
2.4766e-05
4.2461e-05
3.33242e-05
4.18806e-05
4.17322e-05
3.99951e-05
4.94641e-05
3.66827e-05
5.60408e-05
3.19761e-05
6.10826e-05
2.60412e-05
1.92766e-05
6.44011e-05
-6.29471e-06
7.83409e-05
-1.21632e-05
7.30804e-05
-1.69846e-05
6.40368e-05
-2.04822e-05
5.40488e-05
-2.25485e-05
4.44246e-05
-2.32079e-05
3.61339e-05
-2.25714e-05
2.98129e-05
-2.08281e-05
2.58327e-05
-1.82252e-05
2.4238e-05
-1.49622e-05
2.45926e-05
-1.1144e-05
2.61867e-05
-6.78782e-06
2.83809e-05
-1.87756e-06
3.06975e-05
3.59556e-06
3.27998e-05
9.62835e-06
3.44349e-05
1.61428e-05
3.54128e-05
2.30187e-05
3.55853e-05
3.00589e-05
3.48405e-05
3.6967e-05
3.30871e-05
4.33944e-05
3.02554e-05
4.9004e-05
2.63665e-05
5.35215e-05
2.15239e-05
1.59945e-05
5.68038e-05
-5.11898e-06
8.34599e-05
-1.01924e-05
7.81538e-05
-1.45359e-05
6.83802e-05
-1.78096e-05
5.73225e-05
-1.98268e-05
4.64418e-05
-2.05223e-05
3.68295e-05
-1.99214e-05
2.9212e-05
-1.8174e-05
2.40853e-05
-1.55348e-05
2.15988e-05
-1.22663e-05
2.13241e-05
-8.52503e-06
2.24454e-05
-4.39442e-06
2.42504e-05
1.13517e-07
2.61896e-05
4.99318e-06
2.79203e-05
1.021e-05
2.92182e-05
1.57302e-05
2.98926e-05
2.14543e-05
2.98613e-05
2.72444e-05
2.90506e-05
3.29053e-05
2.74263e-05
3.81981e-05
2.49627e-05
4.28919e-05
2.16728e-05
4.67983e-05
1.76175e-05
1.29743e-05
4.98188e-05
-3.86279e-06
8.73225e-05
-8.08375e-06
8.23746e-05
-1.19527e-05
7.2249e-05
-1.50527e-05
6.04225e-05
-1.70999e-05
4.84889e-05
-1.7924e-05
3.76536e-05
-1.74553e-05
2.87434e-05
-1.57908e-05
2.24208e-05
-1.31958e-05
1.90039e-05
-9.9728e-06
1.81011e-05
-6.34339e-06
1.88161e-05
-2.43023e-06
2.03373e-05
1.7123e-06
2.20471e-05
6.0629e-06
2.35697e-05
1.06162e-05
2.4665e-05
1.53167e-05
2.51922e-05
2.01098e-05
2.50683e-05
2.48902e-05
2.42703e-05
2.95363e-05
2.27803e-05
3.38829e-05
2.06161e-05
3.77678e-05
1.77879e-05
4.10552e-05
1.43303e-05
1.03523e-05
4.36774e-05
-2.44321e-06
8.97657e-05
-5.659e-06
8.55903e-05
-8.99694e-06
7.55869e-05
-1.19484e-05
6.33739e-05
-1.41055e-05
5.06459e-05
-1.51714e-05
3.87195e-05
-1.49532e-05
2.85252e-05
-1.34771e-05
2.09447e-05
-1.10233e-05
1.65501e-05
-7.91968e-06
1.49976e-05
-4.43562e-06
1.5332e-05
-7.48623e-07
1.66503e-05
3.05326e-06
1.82453e-05
6.94511e-06
1.96779e-05
1.09183e-05
2.06919e-05
1.49367e-05
2.11738e-05
1.89601e-05
2.1045e-05
2.29299e-05
2.03005e-05
2.67566e-05
1.89536e-05
3.03333e-05
1.70395e-05
3.35388e-05
1.45825e-05
3.62683e-05
1.16007e-05
8.15181e-06
3.8469e-05
-8.29952e-07
9.05955e-05
-2.77814e-06
8.75384e-05
-5.43357e-06
7.82423e-05
-8.19697e-06
6.61373e-05
-1.05501e-05
5.2999e-05
-1.20012e-05
4.01706e-05
-1.21514e-05
2.86754e-05
-1.0993e-05
1.97862e-05
-8.80029e-06
1.43575e-05
-5.91689e-06
1.21142e-05
-2.64524e-06
1.20604e-05
7.85831e-07
1.32193e-05
4.24746e-06
1.47837e-05
7.71471e-06
1.62107e-05
1.11734e-05
1.72333e-05
1.46114e-05
1.77358e-05
1.79954e-05
1.7661e-05
2.12885e-05
1.70074e-05
2.44405e-05
1.58017e-05
2.73803e-05
1.40997e-05
3.00227e-05
1.194e-05
3.22816e-05
9.342e-06
6.33004e-06
3.41035e-05
9.33962e-07
8.96615e-05
4.99233e-07
8.79731e-05
-1.15453e-06
7.9896e-05
-3.469e-06
6.84517e-05
-5.97437e-06
5.55043e-05
-7.98192e-06
4.21781e-05
-8.76965e-06
2.94631e-05
-8.08546e-06
1.9102e-05
-6.29237e-06
1.25644e-05
-3.76142e-06
9.58324e-06
-8.05478e-07
9.10449e-06
2.30107e-06
1.01127e-05
5.40215e-06
1.16827e-05
8.44828e-06
1.31646e-05
1.14339e-05
1.42477e-05
1.43514e-05
1.48185e-05
1.71794e-05
1.4833e-05
1.99e-05
1.42868e-05
2.2478e-05
1.32237e-05
2.4878e-05
1.16997e-05
2.70408e-05
9.77723e-06
2.88979e-05
7.4848e-06
4.83289e-06
3.03952e-05
2.69865e-06
8.69627e-05
3.88108e-06
8.67906e-05
3.55881e-06
8.02182e-05
2.06346e-06
6.9947e-05
-1.59666e-07
5.77274e-05
-2.46939e-06
4.44878e-05
-4.09506e-06
3.10887e-05
-4.38525e-06
1.93922e-05
-3.25096e-06
1.14301e-05
-1.25284e-06
7.58512e-06
1.23464e-06
6.61701e-06
3.91141e-06
7.43597e-06
6.59496e-06
8.99912e-06
9.20627e-06
1.05533e-05
1.17321e-05
1.17219e-05
1.41664e-05
1.23841e-05
1.64992e-05
1.25002e-05
1.87107e-05
1.20754e-05
2.07885e-05
1.11459e-05
2.27155e-05
9.77274e-06
2.44577e-05
8.03496e-06
2.59605e-05
5.98216e-06
3.6203e-06
2.71731e-05
4.416e-06
8.25467e-05
7.00367e-06
8.42028e-05
7.89015e-06
7.93316e-05
7.3859e-06
7.04512e-05
5.91914e-06
5.91942e-05
3.89905e-06
4.65079e-05
1.94579e-06
3.3042e-05
7.21238e-07
2.06167e-05
6.793e-07
1.1472e-05
1.80706e-06
6.45735e-06
3.57553e-06
4.84854e-06
5.67867e-06
5.33282e-06
7.87041e-06
6.80737e-06
1.00263e-05
8.39745e-06
1.20943e-05
9.65383e-06
1.40598e-05
1.04186e-05
1.59289e-05
1.06312e-05
1.76837e-05
1.03206e-05
1.93178e-05
9.51178e-06
2.08207e-05
8.26978e-06
2.21794e-05
6.67632e-06
2.33611e-05
4.80027e-06
2.66952e-06
2.43121e-05
6.01894e-06
7.65276e-05
9.71802e-06
8.05037e-05
1.14966e-05
7.75529e-05
1.17386e-05
7.02092e-05
1.09061e-05
6.00266e-05
9.41713e-06
4.79969e-05
7.66307e-06
3.4796e-05
6.11518e-06
2.21646e-05
5.24122e-06
1.23459e-05
5.33149e-06
6.36705e-06
6.25867e-06
3.92134e-06
7.65932e-06
3.93215e-06
9.28376e-06
5.18291e-06
1.0929e-05
6.75224e-06
1.25129e-05
8.06984e-06
1.40266e-05
8.90494e-06
1.54521e-05
9.20569e-06
1.67819e-05
8.99079e-06
1.80111e-05
8.28255e-06
1.913e-05
7.15081e-06
2.01439e-05
5.66244e-06
2.10242e-05
3.92012e-06
1.96256e-06
2.17312e-05
7.35531e-06
6.91722e-05
1.18232e-05
7.60357e-05
1.41189e-05
7.52571e-05
1.48314e-05
6.94966e-05
1.45081e-05
6.03498e-05
1.35605e-05
4.89444e-05
1.22488e-05
3.61077e-05
1.08257e-05
2.35876e-05
9.67542e-06
1.34962e-05
9.13064e-06
6.9118e-06
9.25819e-06
3.79375e-06
9.90903e-06
3.28127e-06
1.08505e-05
4.24143e-06
1.19165e-05
5.68619e-06
1.29907e-05
6.99566e-06
1.40351e-05
7.86045e-06
1.5031e-05
8.20981e-06
1.5967e-05
8.05476e-06
1.68234e-05
7.4261e-06
1.76001e-05
6.37408e-06
1.82908e-05
4.97174e-06
1.8891e-05
3.31981e-06
1.48859e-06
1.93651e-05
8.10773e-06
6.10643e-05
1.2948e-05
7.11954e-05
1.54961e-05
7.27089e-05
1.65804e-05
6.84122e-05
1.67732e-05
6.0157e-05
1.64282e-05
4.92894e-05
1.56798e-05
3.6856e-05
1.46371e-05
2.46303e-05
1.35449e-05
1.45883e-05
1.26757e-05
7.78101e-06
1.22291e-05
4.2403e-06
1.21927e-05
3.3176e-06
1.24672e-05
3.96688e-06
1.29232e-05
5.23008e-06
1.34702e-05
6.44866e-06
1.40479e-05
7.28265e-06
1.46318e-05
7.62592e-06
1.51919e-05
7.49459e-06
1.57139e-05
6.90409e-06
1.61734e-05
5.91446e-06
1.65756e-05
4.56952e-06
1.69161e-05
2.97938e-06
1.22869e-06
1.7176e-05
8.0433e-06
5.30209e-05
1.27004e-05
6.65382e-05
1.54551e-05
6.99541e-05
1.70503e-05
6.68169e-05
1.79285e-05
5.92788e-05
1.83e-05
4.89178e-05
1.82065e-05
3.69494e-05
1.76331e-05
2.52036e-05
1.67251e-05
1.54962e-05
1.57227e-05
8.78333e-06
1.4856e-05
5.10695e-06
1.42646e-05
3.90892e-06
1.39387e-05
4.29267e-06
1.3821e-05
5.3477e-06
1.3854e-05
6.41561e-06
1.39962e-05
7.14037e-06
1.41925e-05
7.4296e-06
1.44173e-05
7.26977e-06
1.46312e-05
6.69012e-06
1.48172e-05
5.72837e-06
1.49595e-05
4.42723e-06
1.50636e-05
2.87506e-06
1.17293e-06
1.51195e-05
7.01314e-06
4.60076e-05
1.11718e-05
6.23794e-05
1.42434e-05
6.68823e-05
1.65853e-05
6.4475e-05
1.83142e-05
5.75497e-05
1.94833e-05
4.77487e-05
2.00438e-05
3.63889e-05
1.99176e-05
2.53298e-05
1.91892e-05
1.62245e-05
1.81019e-05
9.87061e-06
1.69224e-05
6.28628e-06
1.58589e-05
4.97242e-06
1.50206e-05
5.13089e-06
1.44172e-05
5.95098e-06
1.40212e-05
6.81149e-06
1.37787e-05
7.38281e-06
1.36469e-05
7.5613e-06
1.35796e-05
7.33703e-06
1.35358e-05
6.7339e-06
1.34824e-05
5.78164e-06
1.34034e-05
4.50614e-06
1.32995e-05
2.97903e-06
1.30096e-06
1.31714e-05
4.87703e-06
4.11305e-05
8.90086e-06
5.83554e-05
1.24944e-05
6.32887e-05
1.56874e-05
6.12819e-05
1.82967e-05
5.49403e-05
2.0207e-05
4.58383e-05
2.1296e-05
3.52998e-05
2.14765e-05
2.51492e-05
2.08359e-05
1.6865e-05
1.96184e-05
1.1088e-05
1.81453e-05
7.75926e-06
1.6696e-05
6.42166e-06
1.54581e-05
6.36866e-06
1.44973e-05
6.91173e-06
1.37914e-05
7.51723e-06
1.32817e-05
7.89244e-06
1.29109e-05
7.93207e-06
1.26256e-05
7.62223e-06
1.23787e-05
6.98071e-06
1.2138e-05
6.02222e-06
1.18779e-05
4.76625e-06
1.15973e-05
3.25936e-06
1.59467e-06
1.13036e-05
2.17031e-06
3.896e-05
6.50663e-06
5.4019e-05
1.07381e-05
5.90571e-05
1.47136e-05
5.73062e-05
1.80614e-05
5.15925e-05
2.04563e-05
4.34432e-05
2.17991e-05
3.3957e-05
2.20575e-05
2.48906e-05
2.13477e-05
1.75748e-05
1.99499e-05
1.24856e-05
1.82121e-05
9.49694e-06
1.64817e-05
8.15203e-06
1.49894e-05
7.86088e-06
1.38336e-05
8.06738e-06
1.29877e-05
8.36308e-06
1.23678e-05
8.51221e-06
1.18903e-05
8.4095e-06
1.1491e-05
8.02143e-06
1.11199e-05
7.35168e-06
1.07476e-05
6.3945e-06
1.03514e-05
5.16226e-06
9.93136e-06
3.67953e-06
2.02594e-06
9.49993e-06
2.51535e-07
3.87084e-05
4.494e-06
4.97764e-05
9.16909e-06
5.43819e-05
1.36137e-05
5.28615e-05