/*--------------------------------*- C++ -*----------------------------------*\
| =========                 |                                                 |
| \\      /  F ield         | OpenFOAM: The Open Source CFD Toolbox           |
|  \\    /   O peration     | Version:  2312                                  |
|   \\  /    A nd           | Website:  www.openfoam.com                      |
|    \\/     M anipulation  |                                                 |
\*---------------------------------------------------------------------------*/
FoamFile
{
    version     2.0;
    format      ascii;
    arch        "LSB;label=32;scalar=64";
    class       volScalarField;
    location    "0.85";
    object      alpha.oil;
}
// * * * * * * * * * * * * * * * * * * * * * * * * * * * * * * * * * * * * * //

dimensions      [0 0 0 0 0 0 0];

internalField   nonuniform List<scalar> 
2268
(
7.24427e-23
3.78566e-23
4.51458e-23
1.50335e-22
5.487e-22
1.5367e-21
3.64379e-21
1.46756e-18
1.7674e-16
7.87123e-15
1.38094e-13
7.05625e-13
1.47632e-12
3.47113e-12
7.71443e-12
1.83027e-11
3.93401e-11
7.48602e-11
1.12269e-10
1.25011e-10
1.25292e-10
2.26016e-05
7.30038e-05
3.96719e-21
1.001e-21
1.43728e-21
6.74045e-21
2.5796e-18
4.12107e-17
3.2837e-16
2.02517e-15
1.52784e-14
5.59934e-14
3.90539e-13
1.99759e-12
4.36865e-12
9.60536e-12
2.17351e-11
4.69509e-11
1.08474e-10
2.59642e-10
4.31417e-10
3.1636e-10
1.25574e-10
1.86593e-05
7.16715e-05
3.58718e-19
9.93351e-20
2.32585e-19
5.40872e-19
5.60675e-17
2.10383e-15
1.19302e-14
5.33796e-14
2.08638e-13
7.77173e-13
2.50625e-12
5.49914e-12
9.88956e-12
1.76267e-11
3.30083e-11
6.65054e-11
1.68737e-10
7.4029e-10
2.48785e-09
4.16734e-09
1.30227e-07
2.07584e-06
4.48935e-06
2.79775e-18
9.25562e-19
6.05732e-18
2.41587e-17
1.51506e-16
4.27423e-15
9.53143e-14
6.06707e-13
2.91132e-12
9.45328e-12
1.92268e-11
3.95181e-11
5.7762e-11
8.62322e-11
1.23625e-10
2.29979e-10
5.15433e-10
9.31068e-10
3.77391e-09
4.07829e-08
2.86546e-07
2.09074e-06
7.83423e-06
5.59657e-18
6.92643e-18
8.55108e-17
1.98568e-16
2.50489e-15
2.14737e-14
7.02107e-13
5.57752e-12
2.12508e-11
6.36415e-11
9.47964e-11
9.26581e-11
1.10947e-10
1.45751e-10
2.02148e-10
3.89778e-10
1.20505e-09
1.99366e-09
1.7745e-09
1.63409e-09
2.27478e-06
2.37577e-05
4.55895e-05
1.29166e-17
1.35319e-16
8.71184e-16
1.18728e-15
3.26986e-14
1.24421e-12
9.46328e-12
5.7302e-11
1.74077e-10
2.05577e-10
1.53295e-10
8.25277e-11
8.29214e-11
8.24991e-11
8.28691e-11
8.27846e-11
8.34396e-11
8.06908e-10
7.48999e-10
7.15146e-10
5.31782e-10
2.2563e-05
4.63728e-05
2.25482e-17
3.73044e-16
2.92046e-15
6.45763e-15
5.43306e-13
1.99081e-11
1.15414e-10
2.56473e-10
2.82835e-10
1.56592e-10
1.54919e-10
9.42369e-07
8.50325e-06
1.62679e-05
1.79625e-05
9.77238e-06
3.62593e-06
1.82138e-07
1.96219e-06
3.85903e-05
0.000216575
4.35965e-05
4.64594e-05
3.58752e-17
1.12559e-15
7.95362e-15
1.57687e-14
6.51328e-13
3.43793e-11
1.50047e-10
1.65738e-10
4.90237e-12
1.10878e-07
1.70723e-06
1.02133e-05
4.50116e-05
0.000115157
0.000200409
0.00023627
0.000293696
0.00067547
0.0012856
0.00181006
0.00240791
0.00503345
0.000736871
0.587555
0.678391
0.823027
0.822944
0.819462
0.812357
0.486639
0.130727
0.0419578
0.0404309
0.0510599
0.134262
0.144451
0.100867
0.0123409
0.233633
0.592648
0.76178
0.736189
0.581564
0.742121
0.759234
0.754065
0.725819
0.695055
0.613009
0.490432
0.128544
0.000109415
0.000110043
0.000127137
0.0040485
0.0023725
0.00609886
0.21648
0.644995
0.760784
0.583854
0.597668
0.321374
0.134593
0.0842188
0.0669985
0.011555
1.51252e-05
1.38878e-05
0.00122491
0.0145421
0.00993234
0.00349216
0.000163626
0.00016191
0.000163612
0.261259
0.721018
0.729713
0.564903
0.467743
0.264136
0.0183205
4.98461e-08
-5.29926e-08
-1.25329e-09
-1.92292e-17
0.00253147
0.0494896
0.172304
0.0669062
0.0041323
0.000161929
0.0290344
0.00016191
0.272196
0.72158
0.600355
0.598932
0.84215
0.725454
0.414053
0.0155795
0.00207136
0.0040434
0.0018423
0.134953
0.810142
0.952739
0.58578
0.263152
0.513927
0.370011
0.0342065
0.228969
0.688243
0.526999
0.612555
0.878964
0.878968
0.610445
0.140437
0.00795516
0.00612575
0.14602
0.812876
0.953206
0.962234
0.962749
0.925515
0.926702
0.663237
0.151259
0.157617
0.667225
0.512175
0.609443
0.878376
0.879043
0.699431
0.145887
0.0082704
0.0203836
0.492163
0.803856
0.694764
0.580252
0.772265
0.567977
0.59141
0.43721
0.151333
0.217934
0.653306
0.484673
0.218984
0.769203
0.858614
0.780075
0.275384
0.0200589
0.0475393
0.475583
0.504905
0.153752
0.297263
0.418891
0.398759
0.403033
0.534757
0.548745
0.472513
0.549883
0.45673
0.0502806
6.46844e-17
1.86868e-15
3.68257e-14
9.41835e-14
1.50353e-13
3.28229e-12
1.6699e-11
2.78519e-11
4.86644e-12
1.53232e-06
7.48374e-06
2.09038e-05
4.84368e-05
0.000104869
0.000152742
0.000278388
0.000543524
0.00177133
0.00284199
0.00281074
0.0023754
0.058617
0.402211
1.35076e-15
6.97007e-15
2.97716e-14
8.14017e-14
9.85374e-14
1.26387e-13
1.93772e-13
9.29215e-13
5.97606e-12
4.76039e-15
1.61313e-18
-1.07531e-10
4.67009e-08
0.00115137
0.00542756
0.00357475
0.00476161
0.00920593
0.0114196
0.0263787
0.258428
0.802775
0.928987
3.27827e-16
1.90852e-15
1.87663e-15
9.58108e-15
3.71559e-15
2.87229e-15
5.10234e-15
2.01332e-10
1.17451e-10
4.26482e-10
4.97356e-07
0.0109712
0.108754
0.177354
0.198106
0.186224
0.0930443
0.00919237
0.216893
0.831217
0.973666
0.978168
0.778451
6.31813e-11
1.87786e-15
7.37534e-08
3.00566e-07
3.02399e-07
1.75157e-07
5.00439e-08
8.33834e-10
1.19782e-10
0.0269647
0.141283
0.309111
0.362018
0.27271
0.194937
0.195306
0.354206
0.786001
0.919455
0.998371
0.999979
0.964362
0.287204
2.53309e-09
7.52768e-11
3.65719e-09
1.37671e-08
5.92236e-16
5.60186e-16
3.09197e-13
0.00233307
0.196458
0.49952
0.506924
0.417157
0.335949
0.336735
0.57477
0.803973
0.966252
0.995487
0.99851
0.999999
0.999999
0.999951
0.999902
1.69552e-08
6.39523e-06
7.22037e-05
3.94285e-07
0.112399
0.247434
0.394712
0.634591
0.610896
0.252188
0.251375
0.307667
0.777286
0.92345
0.966702
0.999846
0.999836
0.999933
0.999998
1
1
0.999999
0.999983
1.16961e-09
1.17475e-09
1.16961e-09
0.225627
0.502267
0.505821
0.505858
0.458898
0.294411
0.302954
0.744246
0.926268
0.999493
0.999496
0.99898
0.999409
0.994078
0.80784
0.67396
0.62518
0.705467
0.849111
0.941741
7.63912e-05
0.0179593
0.0952125
0.283497
0.387517
0.312946
0.212578
0.312314
0.859309
0.959517
0.999496
0.999495
0.999497
0.999492
0.898997
0.524964
0.242274
0.0959556
0.0358842
0.0101796
3.78516e-25
8.62552e-08
0.189481
0.0177355
0.0594069
0.0805773
0.0824164
0.0269961
0.00773958
0.0193258
0.619491
0.999488
0.999495
0.999495
0.999496
0.777915
0.314392
0.111251
0.0147126
1.19774e-06
2.80837e-08
9.30181e-09
6.23831e-15
-1.36051e-12
1.82399e-20
9.38946e-21
0.027615
0.0281443
0.00642312
3.12267e-07
-2.31542e-10
-2.92465e-21
-1.23866e-18
0.179436
0.66841
0.836028
0.793198
0.369837
0.0606213
2.36114e-09
3.21712e-08
4.2044e-08
9.10261e-08
4.01167e-08
4.49982e-09
2.5589e-09
4.47279e-09
3.4124e-09
2.27992e-09
0.0275663
0.000871096
1.08921e-07
2.48292e-07
7.23718e-08
-2.74688e-37
-3.16502e-20
-4.95851e-19
0.01872
0.0490654
0.048926
0.00943682
1.41444e-08
2.53949e-09
9.15012e-09
8.70895e-09
1.30423e-08
1.21089e-08
7.37906e-09
4.45455e-09
6.59853e-09
5.35962e-09
3.85672e-09
0.0227664
1.31253e-07
4.94738e-08
2.1562e-07
1.91224e-07
8.42276e-08
-5.24873e-24
-1.47998e-17
-4.35222e-20
4.85688e-21
2.70418e-20
9.52746e-14
1.14946e-11
7.59732e-10
1.09549e-09
2.36659e-09
1.15704e-08
8.81003e-08
1.25519e-07
3.39029e-08
4.55337e-09
6.76085e-10
1.06195e-09
0.00401997
2.73874e-08
3.55163e-08
4.89356e-08
1.16517e-07
7.36132e-08
7.17912e-09
3.50993e-09
7.00454e-09
6.99438e-09
8.06038e-09
5.56192e-09
4.04953e-09
5.01814e-09
2.43666e-09
1.02849e-09
2.94954e-09
1.25674e-08
1.05502e-07
2.16244e-07
2.83947e-07
1.35369e-07
3.63266e-09
2.7738e-08
2.77617e-08
2.92167e-08
9.52604e-08
1.90075e-08
1.8667e-08
1.86267e-08
1.71656e-08
1.95751e-08
2.03026e-08
2.0297e-08
1.7051e-08
1.24761e-08
1.12429e-08
7.35009e-09
2.44551e-09
1.61375e-09
1.61085e-09
1.14638e-08
3.41052e-08
3.59445e-08
1.7653e-09
1.45876e-05
2.80909e-08
2.7738e-08
2.80941e-08
2.61482e-07
1.08772e-06
7.32359e-07
1.04335e-08
1.07315e-08
1.49875e-08
1.61517e-08
1.42374e-08
9.71654e-09
7.60848e-09
6.61144e-09
5.38688e-09
3.02891e-09
1.88218e-09
2.01653e-09
2.49746e-09
3.39388e-09
2.38825e-09
1.29593e-09
9.77686e-06
1.11996e-06
1.72994e-05
1.20133e-06
9.18721e-08
1.3359e-06
1.32684e-06
1.21665e-07
5.07102e-09
5.47588e-09
6.54253e-09
5.12772e-09
3.43988e-09
2.70116e-09
2.49879e-09
2.03298e-09
1.62223e-09
1.4738e-09
1.86312e-09
2.1384e-09
2.0486e-09
1.49508e-09
1.32728e-09
1.29835e-09
1.99732e-05
4.91825e-05
2.26053e-05
3.71425e-08
1.33668e-06
1.32281e-06
2.15891e-07
3.04865e-09
1.8321e-09
1.99683e-09
1.5006e-09
1.09116e-09
8.76613e-10
8.38286e-10
8.11135e-10
8.75344e-10
1.17379e-09
1.76e-09
1.94388e-09
2.44066e-09
6.60273e-09
9.25278e-09
1.83018e-08
3.32691e-05
4.90537e-05
2.08248e-05
3.44853e-08
2.69052e-07
1.60845e-07
8.06717e-08
6.16874e-09
1.61284e-09
8.58957e-10
5.61238e-10
4.03675e-10
3.13774e-10
3.07017e-10
3.65279e-10
5.9401e-10
1.10639e-09
1.88167e-09
2.38664e-09
2.63063e-09
3.50045e-09
2.07068e-09
1.66301e-07
1.48885e-05
4.62108e-05
4.20901e-06
3.15221e-08
1.42636e-09
1.42259e-09
1.42954e-09
2.48177e-09
1.06078e-09
4.8854e-10
2.62146e-10
1.59593e-10
1.1429e-10
1.22853e-10
2.21102e-10
5.18621e-10
1.09841e-09
1.83867e-09
2.30904e-09
2.20682e-09
1.97317e-09
1.83772e-09
7.19674e-07
6.41475e-08
4.33634e-06
3.32267e-08
3.31343e-08
6.40555e-09
2.04553e-09
1.44844e-09
1.1656e-09
6.23642e-10
2.77074e-10
1.26615e-10
6.4666e-11
4.34838e-11
6.15608e-11
1.69847e-10
4.57423e-10
1.00766e-09
1.60975e-09
1.91538e-09
1.95762e-09
1.9163e-09
8.84895e-08
5.21788e-07
1.70411e-08
1.7147e-08
2.34316e-08
1.50668e-08
4.28194e-09
2.29402e-09
1.36234e-09
7.5654e-10
3.48955e-10
1.46496e-10
5.85445e-11
2.5405e-11
1.73976e-11
3.77306e-11
1.38704e-10
3.84703e-10
8.03133e-10
1.26283e-09
1.48232e-09
1.80798e-09
1.05092e-08
6.07955e-08
4.65869e-08
5.4323e-08
4.89472e-08
4.18078e-08
8.23292e-09
2.22097e-09
1.56809e-09
8.86179e-10
4.28764e-10
1.80625e-10
6.96096e-11
2.45653e-11
9.49806e-12
7.72307e-12
2.58598e-11
1.00258e-10
2.83802e-10
5.7186e-10
8.71174e-10
1.15959e-09
1.78106e-09
5.61837e-09
8.10736e-09
6.38387e-09
7.81455e-08
7.30614e-08
2.6287e-08
3.39956e-09
1.50676e-09
9.5585e-10
4.65873e-10
2.03428e-10
7.88399e-11
2.65795e-11
9.10771e-12
3.42214e-12
3.97574e-12
1.72764e-11
6.51777e-11
1.77114e-10
3.49833e-10
5.44082e-10
7.4077e-10
9.81646e-10
1.50114e-09
1.88441e-09
1.51807e-09
6.91489e-08
3.12358e-08
5.91131e-09
1.60889e-09
9.52844e-10
4.80053e-10
2.11103e-10
8.16036e-11
2.95412e-11
9.70514e-12
3.00431e-12
1.23673e-12
2.2283e-12
9.96505e-12
3.63219e-11
9.48678e-11
1.91459e-10
2.89981e-10
3.80945e-10
4.43942e-10
5.25079e-10
4.48523e-10
4.05664e-10
2.02052e-08
4.26035e-09
1.45271e-09
9.20234e-10
4.48536e-10
1.97244e-10
7.99399e-11
2.90941e-11
9.87407e-12
2.94014e-12
8.81932e-13
4.61472e-13
1.18899e-12
5.19239e-12
1.75531e-11
4.5632e-11
8.81521e-11
1.3551e-10
1.73799e-10
1.82953e-10
1.68922e-10
1.52863e-10
1.19361e-10
1.29303e-09
1.04108e-09
7.80762e-10
3.75838e-10
1.62567e-10
6.59518e-11
2.50484e-11
8.65072e-12
2.74019e-12
7.82536e-13
2.27698e-13
1.84096e-13
6.02237e-13
2.43568e-12
7.72478e-12
1.90353e-11
3.70382e-11
5.58116e-11
6.80542e-11
7.15652e-11
6.61274e-11
4.66173e-11
3.73234e-11
1.0483e-09
5.4275e-10
2.78803e-10
1.1795e-10
4.90662e-11
1.91908e-11
6.94271e-12
2.28e-12
6.80908e-13
1.85702e-13
5.91263e-14
7.65152e-14
2.79145e-13
1.02537e-12
3.05283e-12
7.18439e-12
1.3406e-11
2.03093e-11
2.52746e-11
2.55044e-11
2.11875e-11
1.70209e-11
1.11097e-11
2.54728e-10
1.69796e-10
7.76002e-11
3.14072e-11
1.30071e-11
4.96445e-12
1.72248e-12
5.39215e-13
1.52884e-13
4.00717e-14
1.57494e-14
3.13096e-14
1.16499e-13
3.96229e-13
1.09314e-12
2.45818e-12
4.50673e-12
6.6025e-12
7.91858e-12
8.15771e-12
7.2601e-12
4.7315e-12
3.26207e-12
7.4463e-11
4.05786e-11
1.80789e-11
7.39187e-12
3.03704e-12
1.13636e-12
3.79223e-13
1.13393e-13
3.06152e-14
7.90992e-15
4.37457e-15
1.19344e-14
4.38657e-14
1.39419e-13
3.58726e-13
7.70773e-13
1.37726e-12
1.95807e-12
2.42889e-12
2.42367e-12
2.00613e-12
1.48054e-12
9.25791e-13
1.14785e-11
7.94118e-12
3.63571e-12
1.57413e-12
6.37342e-13
2.31246e-13
7.42254e-14
2.1234e-14
5.47691e-15
1.45795e-15
1.25846e-15
4.15062e-15
1.48555e-14
4.45482e-14
1.08418e-13
2.23433e-13
3.87674e-13
5.52245e-13
6.53144e-13
6.77141e-13
5.67171e-13
3.66563e-13
2.42731e-13
2.46042e-12
1.34485e-12
6.57216e-13
2.96776e-13
1.19687e-13
4.21346e-14
1.30267e-14
3.57015e-15
8.84421e-16
2.61007e-16
3.6104e-16
1.30463e-15
4.52942e-15
1.29563e-14
3.02836e-14
6.00861e-14
1.01235e-13
1.42574e-13
1.6935e-13
1.68241e-13
1.35861e-13
9.52024e-14
5.80047e-14
3.4665e-13
2.03717e-13
1.08312e-13
5.05518e-14
2.02593e-14
6.9391e-15
2.06868e-15
5.43604e-16
1.30531e-16
4.74998e-17
9.91043e-17
3.70069e-16
1.25121e-15
3.44779e-15
7.72969e-15
1.49472e-14
2.47141e-14
3.40695e-14
3.88761e-14
3.90724e-14
3.20624e-14
1.9408e-14
1.2057e-14
4.83528e-14
2.8467e-14
1.64388e-14
7.85915e-15
3.12202e-15
1.04169e-15
2.99538e-16
7.55029e-17
1.78703e-17
9.03072e-18
2.53588e-17
9.52643e-17
3.1522e-16
8.33864e-16
1.81573e-15
3.46074e-15
5.40525e-15
7.51971e-15
8.62976e-15
8.34545e-15
6.31666e-15
3.72668e-15
2.33825e-15
5.55891e-15
3.71361e-15
2.31034e-15
1.12368e-15
4.41563e-16
1.43545e-16
3.97957e-17
9.62712e-18
2.31562e-18
1.77881e-18
5.98489e-18
2.23563e-17
7.25136e-17
1.8492e-16
3.96615e-16
7.1566e-16
1.12592e-15
1.5217e-15
1.70538e-15
1.65331e-15
1.15184e-15
6.29732e-16
4.03229e-16
6.64771e-16
4.55718e-16
3.01829e-16
1.48731e-16
5.77512e-17
1.8263e-17
4.87741e-18
1.13397e-18
2.91955e-19
3.50873e-19
1.30031e-18
4.81015e-18
1.52888e-17
3.7998e-17
7.65421e-17
1.40042e-16
2.12431e-16
2.67191e-16
2.97081e-16
2.7225e-16
1.87214e-16
1.03131e-16
7.03228e-17
7.83559e-17
5.26982e-17
3.68146e-17
1.83376e-17
6.97576e-18
2.15486e-18
5.54185e-19
1.24255e-19
3.69986e-20
6.70536e-20
2.60616e-19
9.54034e-19
2.97071e-18
7.25175e-18
1.43186e-17
2.53328e-17
3.69658e-17
4.4657e-17
4.80548e-17
4.35546e-17
2.87587e-17
1.87755e-17
1.218e-17
8.50669e-18
5.75987e-18
4.21566e-18
2.11836e-18
7.86485e-19
2.37185e-19
5.86675e-20
1.27757e-20
4.83878e-21
1.21751e-20
4.83624e-20
1.75094e-19
5.34394e-19
1.28494e-18
2.49758e-18
4.28819e-18
6.10712e-18
7.26008e-18
7.66796e-18
7.11857e-18
5.00682e-18
2.99926e-18
1.94009e-18
8.61892e-19
5.98486e-19
4.56122e-19
2.30597e-19
8.38378e-20
2.44886e-20
5.81638e-21
1.24687e-21
6.57635e-22
2.0834e-21
8.3447e-21
2.98466e-20
8.93608e-20
2.11783e-19
4.04248e-19
6.84482e-19
9.6362e-19
1.13446e-18
1.1799e-18
1.09227e-18
7.63211e-19
4.51205e-19
2.88462e-19
8.31077e-20
5.95501e-20
4.69367e-20
2.37893e-20
8.48742e-21
2.38315e-21
5.43073e-22
1.17335e-22
9.15965e-23
3.35371e-22
1.34507e-21
4.74872e-21
1.39553e-20
3.26052e-20
6.13006e-20
1.02864e-19
1.4406e-19
1.67987e-19
1.70947e-19
1.54853e-19
1.06034e-19
6.30848e-20
4.00775e-20
7.69925e-21
5.71546e-21
4.62249e-21
2.33905e-21
8.16934e-22
2.19786e-22
4.80505e-23
1.08651e-23
1.27825e-23
5.08697e-23
2.03563e-22
7.09335e-22
2.04617e-21
4.71341e-21
8.76565e-21
1.45502e-20
2.02741e-20
2.33911e-20
2.32079e-20
2.05093e-20
1.3733e-20
8.48143e-21
5.35194e-21
6.89077e-22
5.32248e-22
4.38191e-22
2.20386e-22
7.5002e-23
1.93244e-23
4.05523e-24
1.01337e-24
1.75318e-24
7.29698e-24
2.90764e-23
1.00058e-22
2.83255e-22
6.43273e-22
1.18685e-21
1.94358e-21
2.68567e-21
3.06239e-21
2.96578e-21
2.56576e-21
1.69347e-21
9.86121e-22
6.95405e-22
5.98721e-23
4.8275e-23
4.01928e-23
1.9999e-23
6.60228e-24
1.62915e-24
3.28687e-25
9.72498e-26
2.33527e-25
9.94291e-25
3.94009e-24
1.33991e-23
3.72211e-23
8.33262e-23
1.52728e-22
2.46371e-22
3.36311e-22
3.78761e-22
3.59275e-22
3.05903e-22
2.01325e-22
1.26379e-22
8.99948e-23
0.624906
0.624634
0.587352
0.538607
0.859475
0.723654
0.555551
0.337295
0.0215154
0.0156151
0.0156157
0.0156121
0.0167059
0.0156146
0.0156163
0.0156159
0.670408
0.169253
0.129571
0.163911
0.999953
0.99996
0.999962
0.999953
0.996455
0.999986
0.999988
0.999986
0.516201
0.656872
0.768213
0.855524
8.57734e-21
3.71765e-18
4.08201e-08
0.00580127
1.80513e-09
1.3599e-09
9.98049e-10
9.76128e-10
3.8859e-09
3.60232e-09
1.69877e-09
1.08464e-09
1.90743e-09
4.07024e-09
5.69751e-09
4.21082e-09
7.42314e-08
5.52778e-08
1.87189e-08
7.72788e-09
2.7163e-05
2.04535e-05
1.71498e-06
2.40205e-07
2.73435e-05
2.73857e-05
2.74076e-05
2.74083e-05
1.83195e-05
2.73887e-05
1.21858e-05
4.59619e-06
5.13148e-07
8.76109e-07
3.45966e-07
4.40055e-06
1.13954e-06
1.06632e-06
3.0858e-07
1.01621e-07
1.15371e-06
1.17507e-06
7.77842e-07
7.95323e-08
5.20577e-07
3.37436e-07
1.64311e-07
6.49764e-08
2.17704e-08
1.72464e-08
1.66588e-08
2.05135e-08
5.46163e-09
4.81876e-09
4.69831e-09
5.21419e-09
1.40257e-09
1.32703e-09
1.26334e-09
1.34212e-09
3.85706e-10
3.60739e-10
3.8181e-10
4.02628e-10
1.12305e-10
1.11433e-10
1.0834e-10
1.14464e-10
3.46306e-11
3.09874e-11
2.99649e-11
2.95028e-11
9.79911e-12
8.79652e-12
7.57877e-12
6.96007e-12
2.79684e-12
2.26457e-12
1.89366e-12
1.5725e-12
7.59685e-13
6.31436e-13
4.63038e-13
3.63382e-13
1.94637e-13
1.50562e-13
1.14791e-13
8.57194e-14
4.58215e-14
3.65981e-14
2.55408e-14
1.97925e-14
9.81227e-15
7.10864e-15
5.37421e-15
4.33794e-15
1.87699e-15
1.44186e-15
1.04847e-15
9.55674e-16
3.2814e-16
2.45869e-16
2.00946e-16
2.32914e-16
5.69018e-17
4.49153e-17
4.02771e-17
6.79642e-17
9.63228e-18
7.71026e-18
8.93139e-18
2.34441e-17
1.51638e-18
1.29936e-18
2.23898e-18
8.26926e-18
2.27308e-19
2.34819e-19
6.02261e-19
2.6981e-18
3.24286e-20
4.55958e-20
1.66303e-19
8.49202e-19
4.78374e-21
9.76624e-21
4.62504e-20
2.77054e-19
7.42721e-22
2.27282e-21
1.4633e-20
1.15092e-19
1.43049e-22
1.03877e-21
1.51353e-20
2.11151e-19
0.316773
0.377245
0.766358
0.581294
0.132218
0.0247348
0.0771985
0.0580633
0.0401695
0.283982
0.396425
0.453053
0.615864
0.862582
0.860849
0.832295
0.572324
0.537724
0.0472464
0.0156183
0.0435162
0.472229
0.593112
0.432868
0.0779052
0.0251803
0.0252239
0.0416694
0.413694
0.531946
0.461498
0.521108
0.8589
0.861354
0.83791
0.526023
0.290637
0.0394561
0.0156121
0.0156161
0.218988
0.540389
0.518813
0.423768
0.118416
0.0305682
0.0621274
0.380299
0.532924
0.466853
0.294136
0.31739
0.462121
0.519288
0.43106
0.0373428
0.0375548
0.0156166
0.0156166
0.0560992
0.358993
0.508253
0.528554
0.475659
0.427383
0.498984
0.510895
0.513248
0.513678
0.272646
0.265769
0.279712
0.227486
0.173221
0.0408238
0.105741
0.107848
0.0252882
0.0163462
0.0172302
0.373895
0.721884
0.721895
0.721884
0.664289
0.503449
0.495923
0.495069
0.474716
0.304201
0.218364
0.217872
0.0952416
0.0535289
0.567222
0.883471
0.570138
0.394197
0.313189
0.309541
0.581565
0.7212
0.634651
0.596169
0.834348
0.850471
0.822247
0.842873
0.69567
0.359574
0.175067
0.0993162
0.0851293
0.886258
0.999989
0.999977
0.999969
0.999751
0.745508
0.424988
0.299405
0.300732
0.583328
0.898201
0.952574
0.988782
0.997759
0.972664
0.795216
0.401172
0.132004
0.124605
0.996446
0.940036
0.999993
0.999993
0.999994
0.999994
0.999992
0.999984
0.983692
0.937283
0.874677
0.873755
0.938639
0.997797
0.99634
0.972929
0.822205
0.26522
0.207646
0.99643
0.247023
0.603479
0.848631
0.975085
0.999998
0.999998
0.999989
0.999894
0.999863
0.999886
0.999896
0.999893
0.997829
0.998559
0.998355
0.869374
0.52201
0.680125
0.988182
9.55654e-10
9.36665e-10
0.0388267
0.39825
0.735958
0.929957
0.999989
0.999896
0.999564
0.999384
0.999623
0.999892
0.999881
0.999751
0.977479
0.883826
0.915497
0.947884
0.940203
9.64645e-10
9.22384e-10
8.71289e-10
8.58272e-10
8.71289e-10
0.220109
0.593087
0.860834
0.982814
0.999409
0.999413
0.999668
0.998892
0.979733
0.939699
0.913592
0.858949
0.699484
0.295173
1.88094e-09
2.70406e-09
8.58272e-10
8.45299e-10
1.31463e-09
8.70938e-10
8.47024e-10
0.0886814
0.420698
0.720902
0.876333
0.919687
0.898296
0.650203
0.371999
0.239197
0.141264
0.0180864
0.000437129
5.84868e-09
5.47657e-08
1.49669e-07
3.79383e-12
1.2764e-09
1.04521e-09
8.64646e-10
8.47945e-10
1.10583e-07
0.00377084
0.140307
0.204611
0.166964
0.00941621
0.000133768
0.000140137
0.000284633
0.000424179
0.000418138
7.94893e-08
8.85818e-08
4.39317e-07
3.83037e-12
2.14835e-14
1.54322e-14
8.08238e-09
6.22466e-09
4.92779e-09
1.3992e-26
-1.32453e-25
3.35442e-17
3.04287e-11
6.6509e-06
0.00120198
0.00383034
0.00379314
0.000415512
0.000437157
5.44046e-06
4.5341e-08
1.49904e-08
3.0095e-05
0.00012117
3.29153e-05
1.13992e-07
9.44393e-09
1.42894e-08
1.21836e-08
2.18213e-07
3.63548e-06
6.04035e-06
6.64745e-06
0.00383487
0.00746725
0.00746622
0.00117151
0.000437324
2.14952e-05
2.73454e-05
1.56182e-08
9.67918e-05
0.00033105
0.000283079
2.9628e-05
3.9645e-09
1.29097e-08
2.43709e-08
1.65393e-07
4.575e-06
9.65569e-06
6.60608e-06
0.000353979
0.00239729
0.00399705
0.00413796
0.000664926
3.80351e-05
3.22282e-05
3.13604e-08
0.00019086
0.000331381
0.000331398
0.000112677
3.94326e-09
6.26128e-09
9.12408e-09
9.30141e-09
9.75544e-07
1.27538e-05
3.17861e-05
3.3883e-06
3.37874e-06
7.30505e-06
0.00441348
0.00307757
3.71002e-05
3.11636e-05
4.79054e-08
8.42274e-05
0.000331423
0.000245721
1.89277e-05
3.92268e-09
6.95492e-09
3.83314e-09
3.73245e-08
3.81774e-08
3.90564e-08
1.83349e-05
1.89427e-05
3.37534e-06
4.1115e-05
0.00424411
0.00223355
1.23915e-05
1.54969e-05
1.73627e-05
2.74855e-05
2.49294e-05
1.55115e-05
4.56983e-06
3.89532e-09
6.36191e-09
3.61836e-09
2.30847e-09
4.06023e-08
6.14908e-08
2.57172e-08
2.39295e-06
1.06874e-06
3.85922e-08
0.000132937
7.09581e-07
3.29476e-08
4.39982e-07
6.67479e-07
6.45302e-08
2.82526e-09
2.8364e-09
2.82508e-09
3.86858e-09
3.78101e-09
3.16645e-09
2.30582e-09
1.87935e-09
2.32636e-08
2.48739e-08
7.71153e-09
8.05692e-09
7.03559e-09
3.12392e-08
5.76364e-07
2.55388e-08
1.47345e-08
1.19984e-08
1.09491e-08
7.02603e-09
4.51944e-09
3.05544e-09
2.33935e-09
1.9067e-09
1.73112e-09
1.80669e-09
1.86487e-09
2.1773e-09
3.88344e-09
7.46471e-09
8.73469e-09
5.70922e-09
1.00957e-08
4.55645e-06
6.86058e-09
6.64875e-09
5.7118e-09
4.447e-09
3.35285e-09
2.38913e-09
1.6761e-09
1.23811e-09
1.03962e-09
1.06287e-09
1.25336e-09
1.63303e-09
2.35892e-09
3.79205e-09
6.39545e-09
5.7126e-09
5.71202e-09
2.28523e-08
1.19513e-05
1.6616e-09
1.98683e-09
1.98624e-09
1.6997e-09
1.27727e-09
9.32145e-10
6.8879e-10
5.65593e-10
5.64383e-10
7.11565e-10
9.68973e-10
1.41633e-09
2.54642e-09
5.20673e-09
8.35747e-09
5.30403e-09
0.00107345
0.000954638
2.82326e-05
5.24468e-10
6.40427e-10
6.38116e-10
5.34627e-10
4.08412e-10
3.08907e-10
2.60659e-10
2.78732e-10
3.88404e-10
6.18814e-10
1.03328e-09
1.58188e-09
3.02608e-09
6.94762e-09
1.0627e-08
5.26958e-09
0.00212997
0.00202301
3.10103e-05
1.4403e-10
1.67652e-10
1.6272e-10
1.37463e-10
1.11761e-10
1.04245e-10
1.26532e-10
2.04305e-10
3.91527e-10
7.39591e-10
1.31091e-09
1.91707e-09
3.8688e-09
8.19015e-09
1.01283e-08
5.31365e-09
0.00212741
0.000774292
5.48359e-06
3.36792e-11
3.64945e-11
3.5028e-11
3.28062e-11
3.64197e-11
5.22782e-11
1.01558e-10
2.16743e-10
4.51665e-10
9.04354e-10
1.54675e-09
2.27756e-09
4.78685e-09
9.35274e-09
1.13989e-08
3.47143e-05
0.000667295
1.36547e-08
5.28558e-07
6.78118e-12
7.13996e-12
7.94181e-12
1.08434e-11
1.95933e-11
4.41993e-11
9.9781e-11
2.27115e-10
4.94153e-10
9.90397e-10
1.65433e-09
2.38455e-09
5.32408e-09
1.02085e-08
1.59251e-08
0.000132338
2.73527e-08
1.20299e-08
3.60385e-07
1.34413e-12
1.63111e-12
2.80698e-12
6.18306e-12
1.49432e-11
3.84647e-11
9.37076e-11
2.11732e-10
4.92537e-10
1.00763e-09
1.6351e-09
2.16699e-09
5.36357e-09
9.77855e-09
1.06644e-08
8.19749e-06
1.69791e-06
9.91495e-09
1.07081e-08
3.1361e-13
5.66445e-13
1.52974e-12
4.04763e-12
1.14227e-11
3.11499e-11
7.63012e-11
1.90424e-10
4.77065e-10
1.0284e-09
1.54406e-09
1.85342e-09
5.26018e-09
1.4904e-08
2.81009e-08
1.36283e-08
9.91886e-09
9.91071e-09
9.91892e-09
9.27437e-14
2.63423e-13
8.43741e-13
2.40039e-12
7.35543e-12
2.08632e-11
6.16633e-11
1.72965e-10
5.01876e-10
1.16687e-09
1.61111e-09
1.62323e-09
3.41785e-09
6.72377e-08
1.86575e-07
1.3515e-07
3.06725e-08
1.37391e-08
1.33604e-08
3.12615e-14
1.16014e-13
3.98105e-13
1.3532e-12
4.54326e-12
1.6512e-11
5.68275e-11
1.80915e-10
5.63308e-10
1.3627e-09
1.80772e-09
1.63574e-09
2.83881e-09
2.45216e-07
2.98067e-07
2.9807e-07
2.22975e-07
5.19379e-08
1.61282e-08
1.09298e-14
4.73092e-14
1.89548e-13
8.07363e-13
3.37601e-12
1.50749e-11
5.64841e-11
1.92378e-10
6.15565e-10
1.47857e-09
1.93476e-09
1.66618e-09
1.20873e-08
2.94703e-07
2.98068e-07
2.98068e-07
2.98071e-07
1.63859e-07
2.45801e-08
3.91374e-15
2.05132e-14
1.05576e-13
5.53708e-13
2.87899e-12
1.3474e-11
5.24274e-11
1.86852e-10
6.00832e-10
1.44069e-09
2.07383e-09
1.99144e-09
1.99142e-09
1.20973e-07
2.98069e-07
2.98048e-07
2.98063e-07
2.29182e-07
2.95814e-08
1.54001e-15
1.0752e-14
6.76054e-14
3.87564e-13
2.09734e-12
9.94998e-12
3.95475e-11
1.46589e-10
4.7814e-10
1.20152e-09
2.0721e-09
2.61552e-09
2.67497e-09
2.33157e-09
1.57979e-07
2.97601e-07
2.98072e-07
1.55622e-07
2.97337e-08
6.40092e-16
4.8968e-15
3.28395e-14
1.96998e-13
1.05993e-12
5.22727e-12
2.21663e-11
8.9829e-11
3.11144e-10
8.36795e-10
1.82985e-09
2.98473e-09
3.57592e-09
2.32214e-09
8.39455e-10
1.08416e-07
1.28397e-07
4.71557e-08
2.35077e-08
2.4948e-16
1.80961e-15
1.2168e-14
7.19801e-14
4.51945e-13
2.32516e-12
1.11303e-11
4.91147e-11
1.77513e-10
5.39731e-10
1.38433e-09
2.73464e-09
3.7445e-09
2.39614e-09
8.41382e-10
5.32402e-10
5.69475e-10
1.38593e-08
1.61537e-08
7.88556e-17
5.66175e-16
3.95659e-15
2.65018e-14
1.78274e-13
1.03631e-12
5.58457e-12
2.63074e-11
1.04169e-10
3.27195e-10
8.28735e-10
1.82375e-09
2.98567e-09
2.37218e-09
1.36461e-09
5.28346e-10
5.57558e-10
5.50448e-09
7.42226e-09
2.3038e-17
1.75385e-16
1.38287e-15
1.11845e-14
8.87906e-14
5.67233e-13
3.16169e-12
1.53284e-11
5.87187e-11
1.82994e-10
4.45803e-10
8.86039e-10
1.38724e-09
1.24423e-09
1.09236e-09
4.22125e-10
7.3606e-10
9.00014e-10
3.96112e-09
6.65008e-18
5.90746e-17
5.83924e-16
5.55558e-15
4.77733e-14
3.14889e-13
1.81623e-12
8.29288e-12
2.9788e-11
8.54235e-11
2.02587e-10
3.49428e-10
5.40978e-10
4.41925e-10
2.71752e-10
8.6059e-11
1.16507e-10
7.25944e-10
1.41933e-09
2.15714e-18
2.56719e-17
3.44549e-16
3.89773e-15
3.33631e-14
2.14441e-13
1.06125e-12
4.10441e-12
1.30039e-11
3.09019e-11
6.58001e-11
1.03243e-10
1.50045e-10
6.75362e-11
1.47617e-11
1.46075e-12
4.36904e-12
2.99588e-10
8.07953e-10
1.21429e-18
2.54368e-17
4.1924e-16
4.15492e-15
2.8105e-14
1.38245e-13
5.39188e-13
1.67014e-12
4.18326e-12
9.61951e-12
1.77537e-11
2.65362e-11
3.14278e-11
1.12197e-11
2.30815e-12
3.53444e-13
4.15897e-12
1.08678e-10
1.60393e-10
2.44965e-18
3.41466e-17
3.07204e-16
1.84454e-15
8.11525e-15
2.95395e-14
9.04669e-14
2.33623e-13
5.04281e-13
1.0091e-12
1.62886e-12
2.1371e-12
1.88079e-12
3.59841e-13
2.72299e-14
2.10821e-15
9.60261e-14
1.66439e-12
2.00844e-13
)
;

boundaryField
{
    leftWall
    {
        type            zeroGradient;
    }
    rightWall
    {
        type            zeroGradient;
    }
    lowerWall
    {
        type            zeroGradient;
    }
    atmosphere
    {
        type            inletOutlet;
        inletValue      uniform 0;
        value           nonuniform List<scalar> 
46
(
5.98721e-23
4.8275e-23
4.01928e-23
1.9999e-23
6.60228e-24
1.62915e-24
3.28687e-25
9.72498e-26
2.33527e-25
9.94291e-25
3.94009e-24
1.33991e-23
3.72211e-23
8.33262e-23
1.52728e-22
2.46371e-22
3.36311e-22
3.78761e-22
3.59275e-22
3.05903e-22
2.01325e-22
1.26379e-22
8.99948e-23
1.43049e-22
1.03877e-21
1.51353e-20
2.11151e-19
0
0
0
0
0
0
0
0
0
0
0
0
0
0
0
0
0
0
0
)
;
    }
    defaultFaces
    {
        type            empty;
    }
}


// ************************************************************************* //
