/*--------------------------------*- C++ -*----------------------------------*\
| =========                 |                                                 |
| \\      /  F ield         | OpenFOAM: The Open Source CFD Toolbox           |
|  \\    /   O peration     | Version:  2312                                  |
|   \\  /    A nd           | Website:  www.openfoam.com                      |
|    \\/     M anipulation  |                                                 |
\*---------------------------------------------------------------------------*/
FoamFile
{
    version     2.0;
    format      ascii;
    arch        "LSB;label=32;scalar=64";
    class       volScalarField;
    location    "0.85";
    object      alpha.water_0;
}
// * * * * * * * * * * * * * * * * * * * * * * * * * * * * * * * * * * * * * //

dimensions      [0 0 0 0 0 0 0];

internalField   nonuniform List<scalar> 
2268
(
4.71974e-11
3.54182e-11
2.88642e-11
2.53442e-11
2.37444e-11
2.32262e-11
2.22208e-11
1.99708e-11
1.79551e-11
1.61117e-11
1.44895e-11
1.33024e-11
1.28957e-11
1.29774e-11
1.41859e-11
1.7604e-11
2.44593e-11
3.78361e-11
6.20199e-11
1.1072e-10
1.99149e-10
3.04222e-10
3.57928e-10
2.12604e-11
2.12537e-11
2.13767e-11
2.13518e-11
2.14604e-11
2.50429e-11
3.12583e-11
4.03576e-11
4.69408e-11
4.67993e-11
4.44965e-11
4.11591e-11
3.87922e-11
3.87928e-11
4.12189e-11
4.79163e-11
6.45041e-11
1.10613e-10
2.18942e-10
4.09618e-10
7.87225e-10
1.12867e-09
9.63654e-10
0.1672
0.110849
0.0236447
2.14079e-11
2.11645e-11
2.24094e-11
2.80665e-11
3.56781e-11
4.29298e-11
4.86495e-11
5.25561e-11
5.43038e-11
5.5112e-11
5.61279e-11
5.88727e-11
6.8713e-11
9.6951e-11
2.00398e-10
5.2959e-10
1.26332e-09
2.31823e-09
2.93549e-09
2.60096e-09
0.905589
0.843294
0.646309
0.195611
1.52238e-11
1.52887e-11
2.29518e-11
2.80799e-11
3.45106e-11
3.88758e-11
4.25553e-11
4.54671e-11
4.80269e-11
5.11188e-11
5.63988e-11
6.86133e-11
9.86697e-11
1.9528e-10
6.16427e-10
2.02913e-09
4.10923e-09
4.72013e-09
4.27521e-09
1
1
1
0.780003
0.147907
1.51698e-11
1.50747e-11
1.91466e-11
2.36219e-11
2.30244e-11
2.38703e-11
3.32124e-11
4.52744e-11
3.6165e-11
3.52466e-11
3.38782e-11
3.39447e-11
9.30508e-11
2.61299e-10
8.55404e-10
1.65087e-09
1.66512e-09
1.67945e-09
1
1
1
0.996799
0.539732
0.0230078
1.07873e-11
1.04371e-11
8.79151e-13
7.0747e-13
8.1637e-13
2.96701e-10
2.29481e-10
3.98418e-10
3.35672e-10
4.51132e-10
4.28852e-10
-2.45048e-14
-1.85337e-13
-9.87394e-14
-1.15979e-18
0.000258735
0.00381471
1
1
1
1
0.880433
0.199029
1.11455e-11
1.07873e-11
0.00255233
0.0576062
0.194314
0.308615
0.347312
0.348407
0.337418
0.318971
0.293158
0.27259
0.270828
0.291514
0.333517
0.413028
0.479251
1
1
1
1
0.999659
0.715033
0.257876
0.213558
0.370652
0.640498
0.874185
0.957765
0.971203
0.967635
0.958019
0.944293
0.924918
0.90962
0.909662
0.928504
0.953368
0.949985
0.938063
7.03813e-07
0.000124786
0.0023727
0.0025336
0.00466316
0.00551368
0.0209526
0.0177996
0.0176199
0.0193132
0.016659
0.0141012
0.0136287
0.0118379
0.00779921
0.00779982
0.0485553
0.0608603
0.0607975
0.000304383
0.0315789
0.0541455
0.0547117
0.0600652
0.0869352
0.17057
0.220917
0.203416
0.157393
0.0982661
0.0552106
0.0499441
0.0519126
0.0263275
0.00779006
0.019178
0.0654657
0.117041
0.098602
0.327069
0.536949
0.613933
0.602823
0.589232
0.60077
0.67317
0.8186
0.81041
0.764092
0.599063
0.340877
0.221652
0.0827569
0.0167401
0.0164318
0.0769799
0.147381
0.34157
0.423974
0.649883
0.850361
0.956919
0.965499
0.988119
0.988015
0.951868
0.830203
0.927947
0.928528
0.897988
0.414697
0.116006
0.0166672
0.0196334
0.0789959
0.226678
0.0524714
0.0108129
0.180487
0.754051
0.990899
0.993004
0.993004
0.873659
0.191927
0.0429106
0.401285
0.723773
0.405263
0.104598
0.0692548
0.0458277
0.102342
0.0981464
0.320534
0.0526968
0.011166
-5.158e-21
0.521977
0.975458
0.992986
0.867702
0.185651
0.00539667
0.00543286
0.0132456
0.0600283
0.00668869
0.00261547
0.0108462
0.11754
0.117819
0.091378
0.304543
0.0511219
0.0294336
-7.77656e-06
0.357703
0.978654
0.984981
0.525011
0.0876145
0.0953479
0.112787
1.01564e-12
1.01564e-12
0.000504535
0.00247461
0.0127444
0.117502
0.117738
0.072538
0.505608
0.139052
0.0324874
0.000338761
0.205341
0.965614
0.965165
0.497745
0.378855
0.655405
0.229718
1.01564e-12
1.01564e-12
6.63966e-05
0.00381591
0.0176487
0.117417
0.0725021
0.0603898
0.79621
1
1
1
1
1
0.999909
0.972858
0.937056
0.936726
0.98481
0.999993
0.999979
0.999951
0.999891
0.999839
0.999717
0.999467
0.998307
0.997094
0.996981
0.993038
0.912926
0.543613
1
1
1
1
1
1
1
1
1
1
1
1
1
0.999096
0.994775
0.996252
0.995237
0.990844
0.98632
0.9567
0.708829
0.154474
3.387e-08
1
1
1
1
1
1
1
1
0.999997
1
1
0.990317
0.893849
0.808323
0.783187
0.798076
0.879613
0.933414
0.690412
0.061145
7.93296e-13
7.25293e-14
8.26076e-07
1
1
1
1
1
1
1
1
0.999431
0.97029
0.863006
0.620728
0.368337
0.290002
0.392273
0.638436
0.657129
0.183203
0.0156004
7.2679e-09
1.8948e-07
6.67451e-07
7.93991e-07
1
1
1
1
1
0.990771
0.988419
0.996714
0.799451
0.441714
0.161443
0.011911
0.0841484
0.145469
0.34703
0.203518
0.0314333
3.79541e-09
3.48675e-09
7.01524e-09
7.28335e-09
2.54548e-09
5.29789e-08
1
0.999993
0.999926
1
0.877643
0.74166
0.598897
0.354798
0.069117
0.00432904
0.0177673
0.00898031
0.0234703
0.022623
0.0293766
0.00026245
1.29549e-09
9.09931e-05
2.10297e-06
1.56175e-08
1.53335e-09
2.50461e-09
7.46547e-08
0.930994
0.993676
0.970119
0.690426
0.370743
0.236725
0.141369
0.0285777
0.0046288
0.00153519
0.00372092
0.000690061
2.83781e-05
0.000331732
0.00101048
0.000805145
2.3642e-07
1.38403e-05
2.48666e-09
2.48757e-09
2.79277e-09
3.18175e-09
1.15554e-09
0.285636
0.427182
0.360168
0.117613
0.00844957
1.32128e-15
1.70796e-15
6.47849e-11
0.000451866
2.51996e-05
1.90673e-07
1.28001e-06
3.34962e-05
0.000141097
0.000677617
0.000635788
1.94014e-09
1.94016e-09
9.95534e-09
1.98558e-08
1.91459e-08
5.25436e-09
2.7957e-09
0.0109963
0.000571657
1.22291e-19
-5.02538e-20
-2.87044e-21
1.20112e-11
7.08604e-07
2.50905e-06
1.69749e-07
1.6748e-07
1.86893e-07
1.78983e-07
2.40316e-06
8.21951e-05
0.00016908
0.000130984
1.94015e-09
1.94014e-09
1.94016e-09
2.15549e-09
2.14714e-09
3.29547e-09
1.53825e-08
0.00183096
0.000130236
-1.03099e-12
6.01984e-09
6.40281e-09
2.17793e-08
1.93207e-06
3.21575e-06
1.11944e-06
1.67086e-07
1.658e-07
2.01879e-07
1.88037e-06
3.04449e-06
1.46266e-08
1.50357e-08
1.93093e-06
2.43094e-07
2.77028e-08
6.49114e-08
3.27459e-07
3.80326e-07
8.26294e-09
0.000185237
1.89037e-05
1.41849e-13
4.31028e-08
8.92164e-08
7.09168e-08
1.19644e-06
3.28519e-06
1.77502e-06
2.24306e-06
2.22191e-06
4.84836e-07
4.44724e-08
4.49763e-08
1.48021e-08
2.58168e-08
1.79264e-07
1.44083e-06
5.43511e-06
5.73417e-06
5.73578e-06
4.25032e-06
3.78491e-07
1.75774e-08
1.73717e-08
1.22037e-08
6.34372e-08
9.25983e-08
9.30769e-08
1.72827e-07
3.54876e-07
2.48642e-07
1.28055e-06
2.25705e-06
2.25543e-06
2.25171e-06
1.0968e-06
1.43838e-08
1.48009e-08
2.69259e-08
3.29158e-07
2.0055e-06
3.17228e-06
3.58131e-06
3.625e-06
4.97924e-06
3.13898e-08
1.19635e-07
1.42221e-08
3.15419e-08
5.27351e-08
2.77706e-08
4.08138e-09
4.46279e-09
6.17618e-09
3.67668e-08
7.22048e-07
1.247e-06
1.56096e-06
1.30936e-06
6.23381e-07
2.62181e-07
9.86522e-08
2.76718e-08
7.69815e-09
8.89298e-09
1.26641e-07
3.25606e-07
8.22375e-07
1.27712e-08
5.20185e-08
1.3069e-08
6.74605e-09
2.3178e-09
1.5031e-10
1.51896e-10
4.2133e-09
6.13052e-09
5.50754e-10
1.42244e-08
2.68772e-08
4.1037e-08
5.75157e-08
1.1741e-07
1.09125e-07
7.60278e-08
3.3935e-08
1.49282e-08
3.75079e-09
3.76291e-09
1.59836e-08
6.54582e-08
2.37591e-09
1.42804e-08
1.05636e-08
3.82134e-09
2.35048e-10
1.50682e-10
2.17832e-10
1.58633e-09
1.9158e-09
3.34137e-10
7.4979e-10
1.10497e-09
1.77775e-09
1.96678e-09
4.49562e-09
3.9601e-09
7.15051e-09
8.09433e-09
6.58398e-09
4.36787e-09
4.43942e-09
6.26256e-09
5.32776e-09
1.65549e-09
4.23062e-09
8.24086e-09
2.30137e-09
3.12048e-10
1.50284e-10
1.71175e-10
3.20548e-10
3.24878e-10
8.72642e-11
7.24385e-11
1.77339e-10
2.81217e-10
3.98396e-10
5.14496e-10
5.41189e-10
6.48783e-10
1.17882e-09
1.38111e-09
1.49613e-09
2.10534e-09
2.40562e-09
3.43243e-09
1.64872e-09
4.08458e-08
4.98449e-09
2.56179e-09
6.32294e-10
1.71191e-10
1.03648e-10
7.51286e-11
5.91553e-11
3.33262e-11
3.99401e-11
1.05959e-10
1.87964e-10
2.55986e-10
3.01885e-10
2.78759e-10
2.24083e-10
2.65381e-10
3.09056e-10
5.8013e-10
8.94224e-10
1.36795e-09
2.0672e-09
4.08225e-07
2.58966e-07
8.60243e-09
5.54531e-09
9.95138e-10
1.83483e-10
8.63602e-11
3.54298e-11
2.4007e-11
1.64086e-11
1.91423e-11
4.15072e-11
7.65521e-11
1.02192e-10
1.10101e-10
9.1452e-11
5.2405e-11
5.34008e-11
8.0452e-11
2.39176e-10
3.86167e-10
5.65799e-10
7.44921e-10
6.71568e-07
6.71543e-07
5.32993e-08
5.01932e-09
6.65584e-10
1.50839e-10
6.91692e-11
3.10915e-11
1.62507e-11
9.21347e-12
8.25419e-12
1.22019e-11
2.17162e-11
2.87073e-11
2.97349e-11
2.14739e-11
9.03913e-12
1.01902e-11
2.44031e-11
8.32749e-11
1.15341e-10
1.39233e-10
1.56246e-10
6.71568e-07
5.82927e-07
7.29724e-08
2.68185e-09
3.10071e-10
1.22134e-10
5.82519e-11
2.60987e-11
1.15875e-11
5.43161e-12
3.51518e-12
3.7182e-12
5.53097e-12
6.74664e-12
6.25672e-12
3.65986e-12
1.44199e-12
2.0494e-12
8.01791e-12
2.37133e-11
2.47371e-11
2.06514e-11
1.87664e-11
2.40373e-07
7.76452e-08
3.49746e-08
3.48356e-09
2.07216e-10
9.52274e-11
4.31974e-11
1.77627e-11
7.22712e-12
3.01199e-12
1.51362e-12
1.16471e-12
1.3412e-12
1.39268e-12
1.11928e-12
5.24976e-13
2.31417e-13
4.12571e-13
2.17953e-12
4.56704e-12
3.43288e-12
1.86955e-12
1.79422e-12
2.74434e-08
1.18042e-08
2.3998e-09
9.87267e-10
1.74167e-10
6.34261e-11
2.60783e-11
1.00449e-11
3.78603e-12
1.45244e-12
6.20352e-13
3.69367e-13
3.2754e-13
2.72818e-13
1.72653e-13
7.14821e-14
4.00376e-14
7.63728e-14
4.58961e-13
6.61136e-13
4.63719e-13
2.84221e-13
3.12265e-13
2.05323e-08
5.98353e-09
3.78533e-10
1.8487e-10
8.1378e-11
3.4677e-11
1.28495e-11
4.7159e-12
1.68646e-12
6.04545e-13
2.31355e-13
1.15175e-13
8.18851e-14
5.48111e-14
2.74939e-14
9.2462e-15
6.13109e-15
1.31896e-14
7.61323e-14
9.06456e-14
6.41525e-14
5.05642e-14
5.85311e-14
1.11685e-08
2.07981e-09
3.2425e-10
8.88144e-11
4.12227e-11
1.60262e-11
5.66099e-12
1.86465e-12
6.43465e-13
2.18702e-13
7.70736e-14
3.41022e-14
2.03088e-14
1.03173e-14
4.10636e-15
1.10817e-15
8.27792e-16
1.89323e-15
9.64989e-15
1.1582e-14
9.97592e-15
5.92105e-15
1.04256e-14
1.96347e-09
5.95949e-10
1.4641e-10
4.87045e-11
1.78896e-11
6.17795e-12
2.06952e-12
6.70161e-13
2.21088e-13
6.81196e-14
2.2854e-14
9.12837e-15
4.44316e-15
1.81775e-15
5.79061e-16
1.25329e-16
9.14276e-17
2.54394e-16
1.15801e-15
1.23216e-15
8.30418e-16
8.37823e-16
1.51017e-15
3.32488e-10
1.48362e-10
5.74757e-11
1.83341e-11
6.03165e-12
1.94667e-12
6.26956e-13
1.99181e-13
6.25919e-14
1.89578e-14
5.68851e-15
2.27865e-15
8.30427e-16
2.98842e-16
7.65158e-17
1.30623e-17
9.94197e-18
3.07142e-17
1.11805e-16
1.18632e-16
1.02399e-16
6.44362e-17
1.80914e-16
1.5403e-10
5.43341e-11
1.76264e-11
5.25617e-12
1.699e-12
5.40315e-13
1.71144e-13
5.34443e-14
1.62327e-14
4.69794e-15
1.36358e-15
5.11473e-16
1.46665e-16
4.54315e-17
9.30017e-18
1.26873e-18
8.95904e-19
3.21119e-18
1.09957e-17
9.70069e-18
5.81921e-18
6.87393e-18
1.82688e-17
2.86282e-11
1.42359e-11
4.46005e-12
1.2948e-12
4.22011e-13
1.34476e-13
4.23313e-14
1.30033e-14
3.82515e-15
1.05506e-15
2.97901e-16
9.94164e-17
2.37323e-17
6.30631e-18
1.04294e-18
1.13221e-19
7.86127e-20
2.80638e-19
8.14409e-19
6.3423e-19
5.45822e-19
4.36593e-19
1.83685e-18
7.62097e-12
3.04435e-12
9.45899e-13
2.88611e-13
9.20218e-14
2.99233e-14
9.40164e-15
2.83555e-15
8.0507e-16
2.1269e-16
5.8815e-17
1.62598e-17
3.40399e-18
8.06098e-19
1.08421e-19
9.36011e-21
6.31794e-21
2.17874e-20
5.89814e-20
3.89474e-20
3.3159e-20
4.45771e-20
1.81572e-19
1.2535e-12
5.46454e-13
1.7516e-13
5.63256e-14
1.85018e-14
6.02382e-15
1.88426e-15
5.55895e-16
1.51809e-16
3.84722e-17
1.06563e-17
2.0225e-18
4.44917e-19
9.58298e-20
1.04317e-20
7.21989e-22
4.53129e-22
1.66677e-21
3.64902e-21
2.58248e-21
2.51041e-21
3.21794e-21
1.6933e-20
2.17128e-13
8.57662e-14
2.91189e-14
9.90995e-15
3.37027e-15
1.10678e-15
3.43645e-16
9.86737e-17
2.58383e-17
6.28532e-18
1.66074e-18
2.53573e-19
5.50519e-20
1.05759e-20
9.2779e-22
5.22533e-23
2.93848e-23
1.1606e-22
2.10665e-22
1.28541e-22
1.72646e-22
2.84171e-22
1.42951e-21
2.5318e-14
1.2119e-14
4.44641e-15
1.6042e-15
5.64452e-16
1.87231e-16
5.7371e-17
1.59435e-17
3.99183e-18
9.35155e-19
2.26298e-19
3.04308e-20
6.42825e-21
1.08729e-21
7.6445e-23
3.56152e-24
1.75075e-24
7.14132e-24
1.02876e-23
6.34406e-24
1.4081e-23
1.73314e-23
1.1464e-22
3.38547e-15
1.5942e-15
6.33888e-16
2.42081e-16
8.78992e-17
2.93017e-17
8.79867e-18
2.35397e-18
5.62261e-19
1.27924e-19
2.65711e-20
3.37861e-21
7.05773e-22
1.04212e-22
5.83507e-24
2.30149e-25
9.00531e-26
3.91699e-25
4.72634e-25
3.12462e-25
1.03163e-24
1.08223e-24
8.27479e-24
3.25177e-16
1.97692e-16
8.51371e-17
3.43321e-17
1.27888e-17
4.25233e-18
1.24272e-18
3.18649e-19
7.25168e-20
1.62742e-20
2.50358e-21
3.48895e-22
7.27578e-23
9.28116e-24
4.13555e-25
1.31941e-26
4.4395e-27
1.94721e-26
2.06811e-26
1.8106e-26
6.22921e-26
5.81663e-26
5.5877e-25
3.7352e-17
2.33501e-17
1.08288e-17
4.59653e-18
1.74436e-18
5.73015e-19
1.6204e-19
3.96858e-20
8.60464e-21
1.87649e-21
2.11671e-22
3.44603e-23
7.01429e-24
7.66705e-25
2.57964e-26
7.25911e-28
2.16852e-28
8.73653e-28
8.45586e-28
1.10801e-27
4.07273e-27
2.64914e-27
3.74343e-26
4.06006e-18
2.63124e-18
1.30973e-18
5.82449e-19
2.20949e-19
7.17662e-20
1.95627e-20
4.56506e-21
9.44433e-22
1.9351e-22
1.84555e-23
3.26388e-24
6.32848e-25
5.89497e-26
1.53961e-27
3.95753e-29
1.00898e-29
3.55152e-29
3.29519e-29
6.89658e-29
1.95553e-28
1.90417e-28
2.51182e-27
4.02153e-19
2.83945e-19
1.51262e-19
6.99646e-20
2.63414e-20
8.38622e-21
2.19479e-21
4.87117e-22
9.64812e-23
1.79594e-23
1.57254e-24
2.95541e-25
5.36617e-26
4.24481e-27
9.04181e-29
2.04508e-30
4.4207e-31
1.34616e-30
1.3162e-30
4.79245e-30
1.58896e-29
1.21873e-29
1.65033e-28
3.79907e-20
2.9516e-20
1.67469e-20
7.981e-21
2.98286e-21
9.17639e-22
2.29841e-22
4.84523e-23
9.23861e-24
1.48207e-24
1.28817e-25
2.55661e-26
4.29285e-27
2.87727e-28
5.05978e-30
9.78051e-32
1.87195e-32
4.96711e-32
5.95215e-32
3.51754e-31
1.11526e-30
7.70312e-31
1.02906e-29
3.48417e-21
2.97521e-21
1.78339e-21
8.66696e-22
3.20245e-22
9.4414e-23
2.25822e-23
4.51636e-24
8.3491e-25
1.05173e-25
1.01825e-26
2.11268e-27
3.24646e-28
1.84098e-29
2.65328e-31
4.36518e-33
8.07367e-34
1.88718e-33
3.22214e-33
2.50164e-32
7.603e-32
4.5196e-32
6.34312e-31
3.117e-22
2.92459e-22
1.83184e-22
8.98806e-23
3.25819e-23
9.18451e-24
2.09321e-24
3.96672e-25
7.05951e-26
6.86304e-27
7.854e-28
1.6665e-28
2.32344e-29
1.11374e-30
1.30815e-32
1.85731e-34
3.8287e-35
8.03559e-35
2.01137e-34
1.71086e-33
4.92835e-33
2.47274e-33
3.91216e-32
2.73012e-23
2.81256e-23
1.8197e-23
8.93292e-24
3.15367e-24
8.49718e-25
1.84036e-25
3.30051e-26
5.55919e-27
4.51032e-28
5.92606e-29
1.25511e-29
1.57643e-30
6.38437e-32
6.11215e-34
7.75288e-36
2.14136e-36
4.18162e-36
1.34144e-35
1.12383e-34
2.99677e-34
1.04066e-34
2.40707e-33
2.35122e-24
2.64824e-24
1.75288e-24
8.5398e-25
2.92005e-25
7.51566e-26
1.54243e-26
2.61502e-27
4.10148e-28
2.964e-29
4.36723e-30
9.041e-31
1.01711e-31
3.47997e-33
2.72669e-35
3.30768e-37
1.42211e-37
2.67287e-37
9.05885e-37
7.08685e-36
1.71012e-35
5.62459e-36
1.43775e-34
0.249427
0.241312
0.267714
0.269781
6.7946e-16
1.68952e-25
1.24949e-26
-6.97982e-28
1.25065e-06
9.80842e-07
7.11776e-10
2.56362e-08
2.37234e-07
5.94024e-08
5.89797e-08
8.25461e-08
4.29152e-07
4.28723e-07
4.29149e-07
4.28428e-07
3.74307e-07
3.99365e-07
4.052e-07
4.2449e-07
1.16137e-09
1.66972e-09
2.2658e-08
8.26804e-08
1.62631e-09
6.37563e-10
4.71115e-13
4.14355e-13
8.72195e-09
8.89117e-09
7.42601e-09
6.06008e-09
8.12964e-09
2.44374e-08
1.33619e-08
2.84665e-08
5.37612e-07
1.09324e-07
7.27646e-08
1.63619e-07
4.42171e-06
1.19821e-07
3.43716e-07
1.42917e-06
1.16166e-06
1.02231e-06
1.59493e-06
1.88109e-06
1.5736e-07
1.74168e-07
1.09357e-07
8.53546e-08
5.32315e-09
6.61406e-09
6.73499e-09
6.7667e-09
7.04248e-09
7.74782e-09
7.53354e-09
7.42915e-09
2.58902e-09
2.33204e-09
4.31644e-09
7.83561e-09
7.37414e-10
6.4092e-10
1.08721e-09
3.17589e-09
1.77861e-10
2.2114e-10
2.69581e-10
9.03035e-10
2.5032e-11
3.28909e-11
5.97523e-11
1.14394e-10
2.30538e-12
4.50911e-12
9.50213e-12
1.2728e-11
4.84897e-13
8.69243e-13
1.8006e-12
2.29678e-12
9.77008e-14
1.80177e-13
2.95432e-13
4.58522e-13
1.91865e-14
2.65081e-14
5.45565e-14
8.55708e-14
2.97682e-15
4.73077e-15
6.94886e-15
1.36175e-14
3.97021e-16
5.03809e-16
9.47186e-16
1.75436e-15
4.37752e-17
6.5236e-17
9.40309e-17
1.92597e-16
5.06495e-18
6.47119e-18
9.04513e-18
1.77888e-17
5.03221e-19
7.32836e-19
8.7697e-19
2.13866e-18
5.28797e-20
6.66851e-20
8.19683e-20
2.83803e-19
4.70818e-21
6.8342e-21
7.7197e-21
2.48687e-20
4.49768e-22
4.92086e-22
5.79748e-22
1.63318e-21
3.43217e-23
4.2371e-23
4.45974e-23
1.0247e-22
2.49991e-24
2.53568e-24
2.88254e-24
5.60055e-24
1.73822e-25
1.91197e-25
1.68562e-25
3.03251e-25
1.20394e-26
1.18209e-26
9.08371e-27
1.45406e-26
7.36664e-28
6.31083e-28
4.21768e-28
6.42734e-28
4.24465e-29
3.24761e-29
1.85679e-29
2.71179e-29
2.29992e-30
1.55175e-30
8.46133e-31
1.45635e-30
1.26762e-31
7.25275e-32
5.76572e-32
2.46277e-31
6.93202e-33
4.1303e-33
1.2663e-32
1.27262e-31
4.22199e-34
1.16495e-33
2.10432e-32
3.39222e-31
0.166741
0.00770743
-1.10571e-19
0.101579
0.837896
0.977252
0.904625
0.8933
0.876959
0.280487
2.62306e-06
0.000150871
7.45194e-05
0.00530184
0.0130958
0.0386471
0.0367484
0.094172
0.79621
-2.02831e-10
-2.27623e-13
9.53028e-20
0.0756106
0.528753
0.902961
0.968975
0.968894
0.949664
0.47779
0.00798093
0.00251597
0.000254039
0.00162098
0.00350639
0.00151244
0.0566839
0.50619
0.79621
4.58447e-08
1.9314e-08
-2.32463e-13
0.00510931
0.247263
0.558473
0.869172
0.968919
0.944015
0.625381
0.356006
0.0169464
1.4997e-05
3.90357e-05
3.62178e-05
0.00105016
0.243511
0.823551
0.681301
2.70798e-08
2.76927e-13
3.17842e-15
3.35006e-15
0.00630397
0.239343
0.513669
0.577001
0.505484
0.46817
0.422606
0.274539
0.217217
0.0165848
0.00705787
0.0482291
0.742969
0.839985
0.566007
3.59571e-07
6.43823e-08
1.61711e-08
1.54094e-12
0.00067182
0.0479441
0.125232
0.162653
0.162203
0.176666
0.17834
0.208668
0.354531
0.353051
0.330168
0.544488
0.860367
0.830123
0.114134
5.01269e-07
5.04545e-07
3.80618e-07
1.7651e-08
1.62476e-15
1.73368e-15
1.62483e-15
6.59503e-12
0.000207645
7.487e-05
9.85486e-06
0.00090686
0.0454931
0.241812
0.574932
0.805721
0.860316
0.788035
4.61776e-07
1.35105e-07
1.73049e-07
1.74115e-07
1.98434e-07
1.53625e-07
1.37895e-10
1.56206e-08
2.67715e-20
7.52813e-24
8.51515e-20
5.38861e-14
6.25641e-16
-7.49381e-09
-2.8541e-15
0.126699
0.524064
0.860353
0.790225
4.61097e-07
4.71115e-13
1.47899e-11
1.3648e-11
1.87654e-08
3.84771e-08
8.90703e-08
1.33587e-07
3.59238e-07
2.74424e-07
4.80787e-08
9.00926e-07
1.62935e-06
6.22654e-06
2.17568e-05
2.42688e-05
0.128141
0.72613
0.787176
4.60228e-07
3.73647e-09
5.86314e-10
4.42836e-11
4.48218e-11
4.52981e-11
4.56979e-11
1.23018e-10
1.13551e-06
2.32735e-06
4.12184e-06
4.90055e-06
5.98324e-06
6.02439e-06
0.000325449
0.00176356
0.121753
0.50875
0.385382
4.59659e-07
3.7807e-08
6.22564e-09
2.22672e-10
4.89992e-10
9.58317e-11
5.61553e-11
5.11349e-11
6.21547e-07
6.89924e-06
1.36276e-05
1.40963e-05
6.01187e-06
4.54688e-05
0.000221834
0.018236
0.112668
0.0697961
2.78431e-09
4.59223e-07
1.6658e-07
1.12245e-08
3.24091e-09
2.41625e-09
1.43589e-10
1.1478e-10
5.03685e-11
5.13055e-11
6.1239e-07
1.4995e-05
3.12529e-05
3.67384e-05
3.53444e-05
0.00670964
0.0191747
0.00899261
2.59197e-10
4.79591e-09
3.96467e-07
1.83614e-06
4.13611e-09
4.36197e-09
1.67639e-08
9.5284e-10
1.02406e-10
7.73582e-11
1.6558e-11
8.62982e-12
7.80245e-12
1.16037e-06
0.000169935
0.00101663
0.00185146
0.00067714
4.69764e-10
1.57064e-09
1.28246e-08
2.96977e-14
1.88728e-06
7.04934e-07
2.84063e-07
1.95273e-07
9.62856e-09
1.07952e-10
2.66171e-10
5.06581e-11
4.67367e-11
3.562e-06
1.06803e-05
6.51533e-06
1.05035e-11
1.10132e-11
1.05035e-11
4.64066e-10
1.68735e-09
1.1668e-09
3.04234e-14
1.70979e-07
1.09033e-07
6.21346e-07
7.63088e-07
1.4823e-07
1.20861e-10
5.94081e-10
4.02844e-10
5.41017e-11
1.07341e-11
1.09307e-11
1.0434e-11
3.26942e-11
8.64295e-11
9.58215e-11
6.21592e-11
3.76039e-12
8.36439e-14
5.0492e-14
3.0368e-08
1.17987e-08
8.24431e-08
7.546e-07
6.65076e-07
9.90973e-08
5.97444e-10
8.98026e-10
3.06505e-10
3.7148e-11
1.16751e-11
2.49199e-11
5.35722e-11
6.17264e-11
4.72538e-11
2.988e-11
1.55442e-11
2.46327e-12
1.33159e-13
1.20226e-08
1.07155e-08
4.48029e-09
4.97073e-08
4.039e-07
2.72033e-07
5.53345e-09
1.2308e-09
7.92093e-10
2.06016e-10
2.20394e-11
1.23691e-11
1.25207e-11
2.35448e-11
3.60176e-11
4.10501e-11
2.46458e-11
5.94131e-12
3.09958e-13
1.05303e-08
4.8752e-09
4.47688e-09
2.8206e-08
2.38775e-08
3.05626e-08
1.94683e-08
1.94465e-09
1.45931e-09
7.5796e-10
1.46127e-10
3.81484e-11
3.25085e-11
3.63386e-11
4.40192e-11
4.51907e-11
3.08393e-11
9.05003e-12
6.65472e-13
5.90897e-09
3.12352e-09
5.15165e-09
1.25072e-08
1.04471e-08
2.23321e-09
8.15092e-10
1.32695e-09
1.53137e-09
1.35788e-09
6.3728e-10
1.78588e-10
8.24065e-11
5.23431e-11
4.42302e-11
4.47084e-11
3.31482e-11
1.19544e-11
1.01271e-12
1.17446e-09
1.34685e-09
2.21057e-09
1.89821e-09
5.72688e-10
1.8626e-10
3.14435e-10
7.89982e-10
1.07636e-09
1.00732e-09
6.95597e-10
3.23952e-10
1.66227e-10
5.91669e-11
3.80029e-11
3.54812e-11
3.23931e-11
1.31063e-11
1.3883e-12
1.38666e-10
4.06439e-10
4.57929e-10
2.83101e-10
1.4871e-10
1.81575e-10
3.67667e-10
5.19106e-10
5.58987e-10
4.77851e-10
3.73669e-10
1.95236e-10
9.04126e-11
3.40944e-11
2.33842e-11
2.6514e-11
2.57186e-11
1.27207e-11
1.63186e-12
3.33671e-11
9.20928e-11
8.86589e-11
6.01406e-11
5.49426e-11
1.00645e-10
2.35064e-10
2.95442e-10
2.66191e-10
2.144e-10
1.39308e-10
4.50145e-11
1.14106e-11
5.93636e-12
6.50721e-12
1.58734e-11
1.71823e-11
1.00503e-11
1.55222e-12
9.43456e-12
1.91682e-11
1.81241e-11
1.74382e-11
2.94193e-11
7.96312e-11
1.15168e-10
1.06865e-10
8.87548e-11
6.07236e-11
2.40572e-11
5.12985e-12
1.58327e-12
1.7435e-12
3.31794e-12
1.13919e-11
1.35981e-11
7.62648e-12
1.24422e-12
1.7984e-12
2.72982e-12
3.51072e-12
6.38065e-12
1.95575e-11
3.71949e-11
3.67519e-11
3.14435e-11
2.15612e-11
8.94284e-12
1.85206e-12
3.74625e-13
1.90574e-13
3.25174e-13
2.12192e-12
9.07357e-12
9.96539e-12
5.58722e-12
1.15704e-12
3.10271e-13
5.01835e-13
1.04423e-12
3.28353e-12
8.69088e-12
1.02584e-11
9.34019e-12
6.48534e-12
2.80028e-12
5.99833e-13
5.8246e-14
1.98772e-14
2.89323e-14
1.22528e-13
2.5666e-12
8.23931e-12
7.89158e-12
4.43387e-12
1.10205e-12
6.57108e-14
1.50192e-13
4.18985e-13
1.30834e-12
2.10499e-12
2.04877e-12
1.55599e-12
7.75593e-13
1.68926e-13
1.40145e-14
5.87754e-16
9.00979e-16
6.95177e-15
9.3129e-14
2.90578e-12
7.48424e-12
6.63203e-12
3.72836e-12
1.0757e-12
1.59651e-14
6.36791e-14
1.37221e-13
2.92424e-13
3.18919e-13
2.79501e-13
1.74286e-13
4.97951e-14
5.38951e-15
1.72272e-16
3.30542e-18
9.70423e-17
1.48868e-15
6.56325e-14
3.09386e-12
5.55805e-12
5.26651e-12
3.24726e-12
1.07215e-12
3.00763e-15
1.30514e-14
2.87189e-14
3.7749e-14
3.71461e-14
2.80207e-14
1.23313e-14
2.07792e-15
1.07311e-16
1.16454e-18
2.49443e-19
5.52191e-18
2.73199e-16
3.80996e-14
2.46609e-12
4.37802e-12
4.19165e-12
3.0146e-12
1.07707e-12
4.60365e-16
1.78827e-15
3.35162e-15
3.86766e-15
3.36771e-15
1.89914e-15
5.54144e-16
6.4325e-17
2.28726e-18
8.85328e-20
2.61878e-19
9.03794e-18
1.99063e-16
1.78054e-14
1.49966e-12
2.97977e-12
3.5361e-12
2.7099e-12
9.9896e-13
5.3008e-17
1.77174e-16
2.83869e-16
2.92382e-16
2.19032e-16
9.00873e-17
1.58291e-17
9.40724e-19
1.6744e-20
8.52764e-20
3.99314e-18
1.1455e-16
6.06945e-16
9.062e-15
7.18446e-13
2.4287e-12
2.97873e-12
2.40541e-12
8.95566e-13
4.55603e-18
1.40608e-17
1.85845e-17
1.69713e-17
9.90068e-18
2.68463e-18
2.60891e-19
5.94031e-21
7.58869e-21
1.97021e-19
1.13322e-17
3.37384e-16
2.04408e-15
1.07868e-14
3.12681e-13
1.36751e-12
2.23306e-12
1.85294e-12
6.58195e-13
3.14304e-19
7.91198e-19
9.02339e-19
7.04295e-19
2.90373e-19
4.70821e-20
1.85747e-21
7.60367e-22
1.31181e-20
3.38827e-19
1.83018e-17
5.35845e-16
4.0759e-15
2.8962e-14
3.30776e-13
9.62812e-13
1.41683e-12
1.09201e-12
3.29622e-13
1.96494e-20
3.85273e-20
3.7505e-20
2.16643e-20
5.36248e-21
4.12165e-22
5.76432e-23
7.40191e-22
1.90095e-20
4.02392e-19
2.08029e-17
6.50165e-16
5.13574e-15
4.47287e-14
3.3228e-13
8.61918e-13
9.75008e-13
6.37644e-13
1.36294e-13
9.72093e-22
1.47265e-21
1.19781e-21
4.73809e-22
6.14818e-23
7.75402e-24
3.56343e-23
7.90589e-22
1.70951e-20
3.09778e-19
9.35232e-18
4.37205e-16
4.35754e-15
4.46311e-14
2.68184e-13
6.60212e-13
6.64559e-13
3.31776e-13
5.65277e-14
4.41407e-23
5.03753e-23
3.23607e-23
7.6821e-24
1.03135e-24
2.79502e-24
2.43903e-23
3.95219e-22
7.02672e-21
9.61157e-20
1.07891e-18
9.29366e-17
1.76652e-15
1.86654e-14
1.46253e-13
3.00949e-13
2.82586e-13
1.2102e-13
1.99645e-14
1.44155e-24
1.35519e-24
5.84806e-25
1.21778e-25
3.39734e-25
2.23572e-24
1.45087e-23
1.23109e-22
1.48573e-21
1.93852e-20
1.70442e-19
9.64562e-18
3.50009e-16
6.15231e-15
3.66912e-14
6.92159e-14
5.78378e-14
2.57421e-14
5.66089e-15
4.76202e-26
3.40746e-26
1.10521e-26
3.22138e-26
2.70816e-25
1.86714e-24
1.15479e-23
6.73628e-23
3.85907e-22
2.95172e-21
2.47094e-20
3.83552e-19
7.05661e-17
6.13632e-16
5.9594e-15
1.04974e-14
1.08985e-14
5.32128e-15
1.28147e-15
1.35358e-27
8.37368e-28
2.38867e-27
2.17816e-26
1.98841e-25
1.3962e-24
8.80907e-24
4.77182e-23
2.19226e-22
8.77733e-22
4.37924e-21
3.34556e-20
1.80428e-18
4.87619e-17
4.63081e-16
1.13959e-15
1.08726e-15
7.31211e-16
2.26092e-16
4.52747e-29
1.3076e-28
1.37029e-27
1.43838e-26
1.35912e-25
9.79363e-25
6.00687e-24
3.20718e-23
1.35563e-22
4.71747e-22
1.34207e-21
4.47085e-21
5.67772e-20
1.40077e-18
3.71314e-17
6.52852e-17
9.39895e-17
6.73825e-17
4.82268e-17
5.66179e-30
6.15432e-29
7.92591e-28
8.81849e-27
8.43883e-26
6.05425e-25
3.75042e-24
1.84325e-23
7.18132e-23
2.252e-22
5.95018e-22
1.18369e-21
2.0572e-21
8.58324e-21
1.10082e-18
2.04369e-18
1.78299e-18
5.07024e-18
1.36565e-17
2.24838e-30
3.47925e-29
5.62114e-28
7.03063e-27
6.45177e-26
4.38961e-25
2.32041e-24
9.51018e-24
3.16018e-23
8.0101e-23
1.8568e-22
3.28621e-22
5.58495e-22
4.34994e-22
5.33867e-22
4.00621e-21
1.05386e-19
9.7437e-19
6.94878e-18
1.72889e-30
4.36117e-29
7.81797e-28
8.21994e-27
5.84596e-26
2.9996e-25
1.2059e-24
3.87584e-24
1.00943e-23
2.43122e-23
4.74286e-23
7.6233e-23
1.13271e-22
8.47834e-23
1.20716e-22
4.80055e-22
2.25852e-20
4.0342e-19
1.82031e-18
4.27272e-30
6.29281e-29
5.87711e-28
3.62421e-27
1.62822e-26
6.03871e-26
1.88478e-25
4.96912e-25
1.09805e-24
2.26581e-24
3.79654e-24
5.20163e-24
6.8311e-24
2.83532e-24
3.56266e-24
3.8854e-23
2.20515e-21
2.17505e-20
4.5287e-20
)
;

boundaryField
{
    leftWall
    {
        type            zeroGradient;
    }
    rightWall
    {
        type            zeroGradient;
    }
    lowerWall
    {
        type            zeroGradient;
    }
    atmosphere
    {
        type            inletOutlet;
        inletValue      uniform 0;
        value           nonuniform List<scalar> 
46
(
2.35122e-24
2.64824e-24
1.75288e-24
8.5398e-25
2.92005e-25
7.51566e-26
1.54243e-26
2.61502e-27
4.10148e-28
2.964e-29
4.36723e-30
9.041e-31
1.01711e-31
3.47997e-33
2.72669e-35
3.30768e-37
1.42211e-37
2.67287e-37
9.05885e-37
7.08685e-36
1.71012e-35
5.62459e-36
1.43775e-34
4.22199e-34
1.16495e-33
2.10432e-32
3.39222e-31
0
0
0
0
0
0
0
0
0
0
0
0
0
0
0
0
0
0
0
)
;
    }
    defaultFaces
    {
        type            empty;
    }
}


// ************************************************************************* //
