/*--------------------------------*- C++ -*----------------------------------*\
| =========                 |                                                 |
| \\      /  F ield         | OpenFOAM: The Open Source CFD Toolbox           |
|  \\    /   O peration     | Version:  2312                                  |
|   \\  /    A nd           | Website:  www.openfoam.com                      |
|    \\/     M anipulation  |                                                 |
\*---------------------------------------------------------------------------*/
FoamFile
{
    version     2.0;
    format      ascii;
    arch        "LSB;label=32;scalar=64";
    class       volScalarField;
    location    "0.85";
    object      alphas;
}
// * * * * * * * * * * * * * * * * * * * * * * * * * * * * * * * * * * * * * //

dimensions      [0 0 0 0 0 0 0];

internalField   nonuniform List<scalar> 
2268
(
2
2
2
2
2
2
2
2
2
2
2
2
2
2
2
2
2
2
2
2
2
1.99998
1.99993
2
2
2
2
2
2
2
2
2
2
2
2
2
2
2
2
2
2
2
2
2
1.99998
1.99993
1.67257
1.79005
1.96569
2
2
2
2
2
2
2
2
2
2
2
2
2
2
2
2
2
2
2
2
0.195892
0.330449
0.764621
1.67344
2
2
2
2
2
2
2
2
2
2
2
2
2
2
2
2
2
2
1.99999
5.12409e-10
5.06656e-10
0.00104821
0.544505
1.77509
2
2
2
2
2
2
2
2
2
2
2
2
2
2
2
2
1.99998
1.99995
6.03844e-10
6.31565e-10
5.82917e-10
0.0186628
1.05518
1.97946
2
2
2
2
2
2
2
2
2
2
2
2
2
2
2
1.99867
1.98971
5.77248e-10
5.79772e-10
6.60609e-10
4.51905e-10
0.329072
1.68675
2
2
1.99016
1.85573
1.56475
1.34378
1.27674
1.2793
1.3048
1.3444
1.39735
1.43625
1.4363
1.38975
1.3008
1.14105
1.01047
6.46382e-10
6.22715e-10
6.30157e-10
5.10339e-10
0.00412544
0.66652
1.50057
1.5423
1.19241
0.647601
0.208575
0.0666965
0.0463106
0.055135
0.074976
0.102777
0.14078
0.167844
0.164525
0.124528
0.0782422
0.0962519
0.155778
1.42747
1.32341
1.17439
1.17417
1.17503
1.18073
1.47326
1.83382
1.92199
1.91946
1.91904
1.86639
1.85915
1.88656
2.00702
1.79573
1.3398
1.1464
1.19735
1.43823
1.18977
1.12838
1.14052
1.15968
1.13389
1.04705
1.05703
1.4504
1.67033
1.79407
1.88901
1.89793
1.89455
1.95949
1.79204
1.33947
1.15713
1.27001
1.22152
1.11
0.830149
0.693874
0.728679
0.807228
0.79186
0.657831
0.358473
0.357918
0.448058
0.774009
1.31797
1.55354
1.86023
1.72683
1.26915
1.181
1.24925
0.999527
1.25708
1.02227
0.42761
0.0869968
0.0666477
0.0228438
0.0206193
0.0611161
0.186695
0.087092
0.148177
0.200682
1.12047
1.83914
1.76733
1.29882
1.42968
0.917994
1.18977
1.51506
1.70783
0.73076
0.0241762
0.0103562
0.0122531
0.159956
0.8549
0.974208
0.604996
0.275676
0.653373
1.42222
1.91131
1.82277
1.20075
1.58117
0.776137
1.06098
1.19095
1.77801
1.14604
0.0526782
0.00791663
0.165852
0.874094
1.0533
1.04307
1.0259
0.950527
1.07906
1.35905
1.85979
1.73516
1.15236
1.65675
0.816007
1.06235
1.12004
1.59504
1.58888
0.0380087
0.0209311
0.5449
1.04949
1.19889
1.4222
1.40662
1.74005
1.64051
1.81047
1.90354
1.66058
1.22877
1.75189
0.52859
0.991871
1.16353
1.43534
1.7252
0.0319424
0.0487401
0.576911
0.722286
0.604627
1.68588
2.08073
2.0898
2.00319
1.73648
1.48554
1.37664
1.66023
1.80584
0.363064
7.82709e-10
7.4624e-10
6.98799e-10
6.96009e-10
4.86089e-10
0.000897735
0.0569054
0.118449
0.110926
0.0197922
7.48733e-06
2.09156e-05
4.84701e-05
0.000105056
0.000153583
0.000279335
0.000544341
0.0017716
0.00284226
0.00321891
0.019759
0.186329
0.634318
8.78246e-10
8.58987e-10
8.22649e-10
7.87464e-10
7.23099e-10
6.11324e-10
1.43049e-09
1.651e-09
7.99336e-08
8.86106e-10
1.66964e-10
-1.01723e-10
4.67037e-08
0.00115137
0.00542757
0.00357476
0.00476161
0.0092835
0.0202245
0.100691
0.471792
1.01509
1.14202
8.60287e-10
8.59781e-10
8.27289e-10
7.06834e-10
6.42047e-10
5.48629e-10
5.05646e-10
5.87649e-10
1.23581e-05
7.10877e-10
4.97427e-07
0.0109712
0.1102
0.222939
0.245827
0.221211
0.143304
0.20068
0.620436
1.22805
1.05267
1.04363
1.44302
6.39006e-10
5.96875e-10
7.41648e-08
3.00896e-07
3.0265e-07
1.75248e-07
5.0144e-08
8.87755e-10
0.00161775
0.039807
0.142898
0.529657
1.17536
1.5391
1.39648
0.620148
0.373283
0.962463
1.12575
1.00325
1.00002
1.07119
2.42549
2.62018e-09
2.12989e-10
7.02244e-09
1.18468e-06
9.8648e-07
0.0263212
0.0336906
0.00384336
0.197159
0.679246
1.51952
2.11302
2.04313
1.81881
0.760953
0.843099
0.984724
1.00903
1.00298
1
1
1.00005
1.0001
1.69552e-08
6.39523e-06
7.22037e-05
4.34827e-07
0.112399
0.247434
0.394712
0.652222
1.59082
2.4734
2.45007
2.35223
1.35964
1.07229
0.966702
0.999876
1.00032
0.999933
0.999999
1
1
1
1.00002
0.193714
0.00954429
0.0771416
0.440552
0.841449
1.22184
1.51749
1.99455
2.39322
2.38826
1.49889
1.14555
1.00076
1.00001
0.99898
0.999409
1.01184
1.38428
1.65208
1.74964
1.58907
1.30178
1.11652
2.11337
1.64989
1.69317
2.05609
2.1902
2.37411
2.57484
2.37537
1.27917
1.08096
1.00101
1.001
1.00084
1.00048
1.19981
1.94825
2.51545
2.80809
2.92823
2.97964
3
3
2.62104
2.92964
2.87849
2.83873
2.83517
2.94601
2.98452
2.96135
1.76101
1.00102
1.00101
1.00101
1.00101
1.44415
2.37088
2.7769
2.97018
3
3
3
3
3
3
3
2.93956
2.94327
2.98715
3
3
3
2.99999
2.64112
1.66318
1.32794
1.4136
2.26033
2.87875
2.99999
3
3
3
3
3
3
3
3
3
2.94431
2.9982
3
3
3
3
2.99999
2.99999
2.96255
2.90186
2.90214
2.98113
3
3
3
3
3
3
2.99998
2.99998
2.99998
2.99999
3
2.95447
3
3
3
3
3
3
3
3
3
2.99999
2.99999
2.99999
3
3
3
3
3
2.99999
2.99999
2.99999
2.99999
2.99999
2.99196
3
3
3
3
3
3
3
3
3
3
3
3
3
3
3
3
3
3
3
3
3
3
3
3
3
3
3
3
3
3
3
3
3
3
3
3
3
3
3
3
3
3
3
3
2.99997
3
3
3
3
3
3
3
3
3
3
3
3
3
3
3
3
3
3
3
3
3
3
2.99998
3
2.99997
3
3
3
3
3
3
3
3
3
3
3
3
3
3
3
3
3
3
3
3
3
2.99996
2.9999
2.99995
3
3
3
3
3
3
3
3
3
3
3
3
3
3
3
3
3
3
3
3
2.99993
2.9999
2.99996
3
3
3
3
3
3
3
3
3
3
3
3
3
3
3
3
3
3
3
3
2.99997
2.99991
2.99999
3
3
3
3
3
3
3
3
3
3
3
3
3
3
3
3
3
3
3
3
3
2.99999
3
3
3
3
3
3
3
3
3
3
3
3
3
3
3
3
3
3
3
3
3
3
3
3
3
3
3
3
3
3
3
3
3
3
3
3
3
3
3
3
3
3
3
3
3
3
3
3
3
3
3
3
3
3
3
3
3
3
3
3
3
3
3
3
3
3
3
3
3
3
3
3
3
3
3
3
3
3
3
3
3
3
3
3
3
3
3
3
3
3
3
3
3
3
3
3
3
3
3
3
3
3
3
3
3
3
3
3
3
3
3
3
3
3
3
3
3
3
3
3
3
3
3
3
3
3
3
3
3
3
3
3
3
3
3
3
3
3
3
3
3
3
3
3
3
3
3
3
3
3
3
3
3
3
3
3
3
3
3
3
3
3
3
3
3
3
3
3
3
3
3
3
3
3
3
3
3
3
3
3
3
3
3
3
3
3
3
3
3
3
3
3
3
3
3
3
3
3
3
3
3
3
3
3
3
3
3
3
3
3
3
3
3
3
3
3
3
3
3
3
3
3
3
3
3
3
3
3
3
3
3
3
3
3
3
3
3
3
3
3
3
3
3
3
3
3
3
3
3
3
3
3
3
3
3
3
3
3
3
3
3
3
3
3
3
3
3
3
3
3
3
3
3
3
3
3
3
3
3
3
3
3
3
3
3
3
3
3
3
3
3
3
3
3
3
3
3
3
3
3
3
3
3
3
3
3
3
3
3
3
3
3
3
3
3
3
3
3
3
3
3
3
3
3
3
3
3
3
3
3
3
3
3
3
3
3
3
3
3
3
3
3
3
3
3
3
3
3
3
3
3
3
3
3
3
3
3
3
3
3
3
3
3
3
3
3
3
3
3
3
3
3
3
3
3
3
3
3
3
3
3
3
3
3
3
3
3
3
3
3
3
3
3
3
3
3
3
3
3
3
3
3
3
3
3
3
3
3
3
3
3
3
3
3
3
3
3
3
3
3
3
3
3
3
3
3
3
3
3
3
3
3
3
3
3
3
3
3
3
3
3
3
3
3
3
3
3
3
3
3
3
3
3
3
3
3
3
3
3
3
3
3
3
3
3
3
3
3
3
3
3
3
3
3
3
3
3
3
3
3
3
3
3
3
3
3
3
3
3
3
3
3
3
3
3
3
3
3
3
3
3
3
3
3
3
3
3
3
3
3
3
3
3
3
3
3
3
3
3
3
3
3
3
3
3
3
3
0.975484
0.993415
0.990072
1.08814
1.28105
1.55269
1.8889
2.32541
2.95687
2.96873
2.96877
2.96877
2.96649
2.96874
2.96877
2.96877
1.65908
2.66139
2.74077
2.67217
1.00005
1.00004
1.00004
1.00005
1.00709
1.00003
1.00002
1.00002
1.9676
1.68626
1.46357
1.28895
3
3
3
2.9884
3
3
3
3
3
3
3
3
2.99999
3
3
3
3
3
2.99999
2.99999
2.99995
2.99996
3
3
2.99995
2.99995
2.99995
2.99995
2.99996
2.99995
2.99998
2.99999
3
3
3
2.99999
3
3
3
3
3
3
3
3
3
3
3
3
3
3
3
3
3
3
3
3
3
3
3
3
3
3
3
3
3
3
3
3
3
3
3
3
3
3
3
3
3
3
3
3
3
3
3
3
3
3
3
3
3
3
3
3
3
3
3
3
3
3
3
3
3
3
3
3
3
3
3
3
3
3
3
3
3
3
3
3
3
3
3
3
3
3
3
3
3
3
3
3
3
3
3
3
3
3
3
3
1.85306
2.22064
1.46693
1.45842
0.132483
0.029164
0.119936
0.149641
0.247332
1.57335
2.13352
2.07758
1.75483
1.19361
1.16664
1.14371
1.7061
1.44477
0.364513
2.96876
2.91297
2.05554
1.50555
0.463254
0.0799619
0.0372125
0.0372008
0.0722111
0.760396
1.89137
2.0636
1.95101
1.26778
1.24377
1.31305
1.70239
0.617535
0.368945
2.96877
2.96877
2.56202
1.88681
1.13316
0.423857
0.118681
0.0316435
0.0622727
0.408329
0.849222
1.98645
2.39703
2.3647
2.07525
1.95313
1.25379
0.305597
0.64491
2.96877
2.96877
2.8878
2.28201
1.95051
1.16572
0.489691
0.427529
0.501517
0.578642
0.68508
1.11788
1.79858
2.4043
2.39705
2.34516
0.319297
0.284509
0.831392
2.78429
2.94941
2.9673
2.96554
2.24769
1.39396
1.17519
1.07887
1.19631
1.46711
1.46834
1.34591
0.961592
1.31235
1.5757
0.889936
0.184428
0.299858
1.29229
1.23299
1.85965
2.21154
2.37361
2.38091
1.83683
1.55735
1.73042
1.80743
1.33129
1.29906
1.3544
1.16349
0.833234
0.501451
0.205001
0.182252
0.351916
1.11374
1.00001
1.00002
1.00003
1.00044
1.50892
2.14998
2.40118
2.39852
1.83334
1.2036
1.09485
1.02244
1.00448
1.05463
0.994486
0.60006
0.149618
0.293787
1.00355
1.11993
1.00001
1.00001
1.00001
1.00001
1.00001
1.00002
1.03256
1.12542
1.25064
1.25248
1.12272
1.00438
1.00723
1.05405
0.953143
0.280146
0.237957
1.00357
2.50595
1.79304
1.30274
1.04983
1
1
1.00001
1.0001
1.00013
1.0001
1.00011
1.00012
1.00427
1.00179
0.998356
0.869427
0.533527
0.70749
1.01182
3
3
2.92235
2.2035
1.52808
1.14009
1.00002
1.0001
1.00042
1.00076
1.00036
1.0001
1.00002
0.999764
0.978143
0.897787
1.01004
1.08979
1.09021
3
3
3
3
3
2.55978
1.81383
1.27833
1.03413
1.00057
1.00052
1.00025
1.00103
1.00538
1.03436
1.12658
1.25356
1.57578
2.38044
2.99999
3
3
3
3
3
3
2.82264
2.1586
1.55813
1.24719
1.16009
1.19155
1.6477
2.20698
2.47265
2.67975
2.94765
2.99266
2.99999
3
3
3
3
3
3
3
3
2.99244
2.71935
2.59076
2.6579
2.95563
2.97107
2.98789
2.99931
2.99915
2.99916
3
3
3
3
3
3
3
3
3
2.99996
2.99986
2.99967
2.99983
2.99999
2.9976
2.99234
2.99241
2.99917
2.99913
2.99999
3
3
2.99994
2.99976
2.99993
3
3
3
3
2.99999
2.99999
2.99999
2.99999
2.99233
2.98507
2.98507
2.99766
2.99913
2.99996
2.99995
3
2.99981
2.99934
2.99943
2.99994
3
3
3
3
2.99999
2.99998
2.99999
2.99929
2.99521
2.99201
2.99172
2.99867
2.99992
2.99994
3
2.99962
2.99934
2.99934
2.99977
3
3
3
3
3
2.99997
2.99994
2.99999
2.99999
2.99999
2.99117
2.99384
2.99993
2.99994
3
2.99983
2.99934
2.99951
2.99996
3
3
3
3
3
3
2.99996
2.99996
2.99999
2.99992
2.99151
2.99553
2.99998
2.99997
2.99997
2.99995
2.99995
2.99997
2.99999
3
3
3
3
3
3
3
3
3
3
2.99973
3
3
3
3
3
3
3
3
3
3
3
3
3
3
3
3
3
3
3
3
3
3
3
3
3
3
3
3
3
3
3
3
3
3
3
3
3
3
2.99999
3
3
3
3
3
3
3
3
3
3
3
3
3
3
3
3
3
3
2.99998
3
3
3
3
3
3
3
3
3
3
3
3
3
3
3
3
2.99785
2.99809
2.99994
3
3
3
3
3
3
3
3
3
3
3
3
3
3
3
3
2.99574
2.99595
2.99994
3
3
3
3
3
3
3
3
3
3
3
3
3
3
3
3
2.99575
2.99845
2.99999
3
3
3
3
3
3
3
3
3
3
3
3
3
3
3
2.99993
2.99867
3
3
3
3
3
3
3
3
3
3
3
3
3
3
3
3
3
2.99974
3
3
3
3
3
3
3
3
3
3
3
3
3
3
3
3
3
3
2.99998
3
3
3
3
3
3
3
3
3
3
3
3
3
3
3
3
3
3
3
3
3
3
3
3
3
3
3
3
3
3
3
3
3
3
3
3
3
3
3
3
3
3
3
3
3
3
3
3
3
3
3
3
3
3
3
3
3
3
3
3
3
3
3
3
3
3
3
3
3
3
3
3
3
3
3
3
3
3
3
3
3
3
3
3
3
3
3
3
3
3
3
3
3
3
3
3
3
3
3
3
3
3
3
3
3
3
3
3
3
3
3
3
3
3
3
3
3
3
3
3
3
3
3
3
3
3
3
3
3
3
3
3
3
3
3
3
3
3
3
3
3
3
3
3
3
3
3
3
3
3
3
3
3
3
3
3
3
3
3
3
3
3
3
3
3
3
3
3
3
3
3
3
3
3
3
3
3
3
3
3
3
3
3
3
3
3
3
3
3
3
3
3
3
3
3
3
3
3
3
3
3
3
3
3
3
3
3
3
3
3
3
3
3
3
3
3
3
3
3
3
3
3
3
3
3
3
3
3
3
3
3
3
3
3
3
3
3
3
3
3
3
3
3
3
3
3
3
3
3
3
3
3
3
3
3
3
3
3
3
3
3
3
3
3
3
3
3
3
3
)
;

boundaryField
{
    leftWall
    {
        type            calculated;
        value           nonuniform List<scalar> 
50
(
2
2
1.67257
0.195892
5.12409e-10
6.03844e-10
5.77248e-10
6.46382e-10
7.82709e-10
8.78246e-10
8.60287e-10
6.39006e-10
2.62018e-09
1.69552e-08
0.193714
2.11337
2.92964
2.93956
2.94431
2.95447
2.99196
3
3
3
2.99996
2.99993
2.99997
3
3
3
3
3
3
3
3
3
3
3
3
3
3
3
3
3
3
3
3
3
3
3
)
;
    }
    rightWall
    {
        type            calculated;
        value           nonuniform List<scalar> 
50
(
1.19735
1.27001
1.24925
0.917994
0.776137
0.816007
0.52859
0.363064
0.364513
0.368945
0.64491
0.831392
1.29229
1.11374
1.00355
1.00357
1.01182
1.09021
2.38044
2.99266
2.99916
2.99913
2.99913
2.99867
2.99384
2.99553
3
3
2.99999
2.99998
2.99994
2.99994
2.99999
3
3
3
3
3
3
3
3
3
3
3
3
3
3
3
3
3
)
;
    }
    lowerWall
    {
        type            calculated;
        value           nonuniform List<scalar> 
62
(
2
2
2
2
2
2
2
2
2
2
2
2
2
2
2
2
2
2
2
2
2
1.99998
1.99993
1.99993
1.99993
2
1.99999
1.99995
1.98971
1.01047
0.155778
0.975484
0.993415
0.990072
1.08814
1.42747
1.43823
1.22152
0.999527
1.18977
1.06098
1.06235
0.991871
1.42747
1.32341
1.17439
1.17417
1.17503
1.18073
1.47326
1.83382
1.92199
1.91946
1.91904
1.86639
1.85915
1.88656
2.00702
1.79573
1.3398
1.1464
1.19735
)
;
    }
    atmosphere
    {
        type            calculated;
        value           nonuniform List<scalar> 
46
(
3
3
3
3
3
3
3
3
3
3
3
3
3
3
3
3
3
3
3
3
3
3
3
3
3
3
3
3
3
3
3
3
3
3
3
3
3
3
3
3
3
3
3
3
3
3
)
;
    }
    defaultFaces
    {
        type            empty;
    }
}


// ************************************************************************* //
