/*--------------------------------*- C++ -*----------------------------------*\
| =========                 |                                                 |
| \\      /  F ield         | OpenFOAM: The Open Source CFD Toolbox           |
|  \\    /   O peration     | Version:  2312                                  |
|   \\  /    A nd           | Website:  www.openfoam.com                      |
|    \\/     M anipulation  |                                                 |
\*---------------------------------------------------------------------------*/
FoamFile
{
    version     2.0;
    format      ascii;
    arch        "LSB;label=32;scalar=64";
    class       volScalarField;
    location    "3.05";
    object      alpha.oil;
}
// * * * * * * * * * * * * * * * * * * * * * * * * * * * * * * * * * * * * * //

dimensions      [0 0 0 0 0 0 0];

internalField   nonuniform List<scalar> 
2268
(
7.8462e-10
6.9488e-10
4.60979e-10
2.77692e-10
2.8401e-10
4.36963e-10
5.81008e-10
5.52853e-10
1.91974e-10
1.14576e-10
1.11181e-10
1.17087e-10
1.49952e-10
2.10486e-10
3.14e-10
5.02944e-10
8.78124e-10
1.32795e-09
1.62242e-09
4.88414e-07
3.12022e-05
5.31667e-05
5.30769e-05
7.34348e-10
3.90772e-10
3.2933e-10
3.41464e-10
2.83148e-10
2.82913e-10
7.17246e-09
7.45633e-09
7.64681e-10
2.85995e-10
4.35613e-10
6.3e-10
1.06241e-09
1.4227e-09
5.84676e-10
7.11457e-10
1.3875e-09
2.26633e-09
4.38068e-09
1.6694e-08
2.61899e-06
1.79161e-05
2.53682e-05
2.73689e-10
1.82559e-09
1.81337e-09
9.92922e-08
5.00529e-07
4.76397e-07
1.74936e-08
7.18174e-10
7.1959e-10
2.12642e-09
6.26627e-09
1.1279e-08
1.87724e-08
3.32695e-08
7.77426e-09
1.36722e-09
1.52253e-09
3.01509e-09
3.41299e-09
2.2065e-09
6.16313e-31
1.25017e-36
-4.08472e-24
1.47779e-10
1.29033e-08
8.75235e-08
9.52371e-08
7.84502e-06
1.53662e-07
2.40464e-10
1.41802e-09
7.18186e-10
7.19712e-10
7.18366e-10
7.20632e-10
8.28148e-10
1.34347e-07
6.14935e-08
-4.06294e-24
-1.52328e-22
3.4937e-22
4.15871e-22
4.44806e-10
4.59568e-11
-9.89053e-23
9.74203e-23
1.54159e-10
2.10885e-08
2.78792e-06
5.63091e-05
2.26092e-06
2.41752e-10
2.4029e-10
1.7836e-09
8.96226e-07
3.12803e-05
0.000186669
0.000355665
0.000115267
2.94692e-22
-1.12207e-21
-5.65179e-23
0.00178008
0.007017
0.0109402
0.0129802
0.0120146
0.00553417
0.00387716
0.00196014
0.00228219
2.5168e-06
0.000119735
7.22446e-05
0.000210008
0.00028123
0.000181779
0.000290222
0.00162934
0.00302363
0.00315374
0.00288854
0.00449743
0.00330159
0.00703726
0.0245774
0.0358329
0.0358316
0.0358329
0.0348259
0.013099
0.00905117
0.00732641
0.00732641
0.00351918
0.000120037
0.000301984
0.000626026
0.000625704
0.000474665
0.000654711
0.00233689
0.00310451
0.00287667
0.0036894
0.0254196
0.0423609
0.044515
0.0255551
0.029762
0.0331631
0.0213126
0.010095
0.00865177
0.00865177
0.00732641
0.00732641
0.00491101
0.000135436
0.000166807
0.000479304
0.000525737
0.000428292
0.00028547
0.000201664
0.000225485
0.000259604
0.000363463
0.0181661
0.0796427
0.0537835
0.00930001
0.00834743
0.0113818
0.0107103
0.00865185
0.00865177
0.00996921
0.0279736
0.0276
0.0275998
0.0275998
0.0275995
0.0275994
0.027599
0.0275992
0.0275993
0.0275995
0.0275996
0.0279683
0.0306987
0.0339692
0.0359561
0.0359172
0.0345564
0.0344748
0.0344748
0.0300265
0.035217
0.034762
0.034466
0.0340711
0.0327838
0.0302467
0.0284729
0.0275995
0.0276593
0.0342159
0.0432534
0.0809271
0.134676
0.168705
0.192059
0.199686
0.178055
0.170457
0.0584473
0.229075
0.197751
0.2623
0.319415
0.278751
0.22758
0.221766
0.279923
0.318577
0.382838
0.433913
0.461651
0.461406
0.458501
0.467213
0.528237
0.528236
0.528235
0.298902
0.355344
0.524202
0.524202
0.524202
0.419655
0.323631
0.366466
0.462949
0.542092
0.54205
0.542068
0.46392
0.276711
0.228122
0.234171
0.300775
0.37971
0.524751
0.319633
0.195103
0.425015
0.524202
0.298055
0.0345951
0.030078
0.0300582
0.251244
0.542097
0.542128
0.29868
0.0635158
0.0636667
0.0633033
0.0633327
0.0633325
0.0748381
0.172737
0.319683
0.175171
0.132325
0.521447
0.227379
0.0333934
0.0742848
0.238693
0.424007
0.540408
0.464023
0.0844561
0.0623504
0.0625217
0.0642942
0.0633327
0.0633323
0.0633321
0.0906285
0.177094
0.0924337
0.0393131
0.44223
0.298685
0.0336268
0.38098
0.539414
0.543192
0.543354
0.532777
0.136881
0.0621552
0.0702011
0.0726249
0.0633461
0.0633319
0.0633318
0.0633705
0.117913
0.0168041
0.0307142
0.218178
0.29926
0.0904393
0.0554775
0.33394
0.489421
0.524592
0.433121
0.175341
0.0682089
0.11025
0.178927
0.097745
0.0633319
0.063332
0.0634516
0.00311628
0.00175308
0.000477545
0.000133982
2.70155e-05
2.62471e-05
3.97931e-05
2.33013e-05
2.29199e-05
6.81038e-21
-2.08576e-20
-3.90154e-25
-6.16138e-11
-1.39705e-10
0.0982345
0.186804
0.0406466
0.00808759
0.00808697
0.00820025
0.00939032
0.0889897
0.23164
0.000200072
9.92495e-05
4.53807e-08
5.53308e-06
5.49373e-14
-1.77781e-09
-3.19515e-08
-6.22605e-09
-1.46817e-09
-2.83651e-20
-2.4585e-21
-3.38121e-23
-4.00144e-10
-9.46671e-09
0.0661359
0.245236
0.147942
0.108777
0.0913843
0.130669
0.200499
0.379547
0.432596
1.56858e-05
4.5371e-08
4.54138e-08
4.54037e-08
0.00623465
0.0504119
0.102157
0.183333
0.179979
0.122237
0.0293932
0.00140964
0.0118079
0.0854351
0.253199
0.410751
0.572942
0.701911
0.740695
0.806977
0.8461
0.853849
0.902753
0.0280395
0.0538169
0.109139
0.215741
0.44005
0.761146
0.73516
0.613288
0.649553
0.611634
0.551535
0.539142
0.606112
0.734508
0.840453
0.923745
0.986686
0.985518
0.984378
0.984096
0.959805
0.926522
0.910506
0.820514
0.876508
0.918169
0.918075
0.917988
0.918045
0.846658
0.719081
0.890636
0.985865
0.98687
0.9868
0.984727
0.991255
0.99666
0.999204
0.999396
0.999396
0.999396
0.999395
0.999331
0.983644
0.936051
0.606203
0.618401
0.62505
0.614981
0.615332
0.549848
0.503623
0.477154
0.621851
0.793094
0.884568
0.94785
0.998267
0.999396
0.999396
0.999397
0.999396
0.999396
0.999396
0.999392
0.997161
0.997109
0.990507
0.0128968
0.0148756
0.0314622
0.0420574
0.0496794
0.0631587
0.0723431
0.0887422
0.0593172
0.0718259
0.09904
0.153632
0.252442
0.41332
0.585695
0.741142
0.866406
0.953808
0.997061
0.998592
0.998089
0.996253
0.996215
4.42892e-21
3.47303e-21
-3.75952e-21
6.27048e-21
7.70587e-16
2.12276e-25
-2.58304e-07
-1.4276e-22
-3.19672e-23
-2.15976e-24
6.36291e-27
1.36846e-21
-1.02384e-19
0.000160083
0.0193175
0.0749955
0.162721
0.290487
0.477506
0.691389
0.870845
0.96187
0.968374
3.0838e-07
2.6381e-06
2.94005e-06
2.39392e-06
1.15309e-07
2.00494e-07
4.17711e-05
0.00011102
0.00013712
7.74814e-05
6.53561e-07
2.61309e-08
9.06971e-08
8.27944e-13
-1.53222e-11
1.595e-20
-3.88871e-11
3.12978e-19
0.00245915
0.0488569
0.170598
0.302787
0.347352
1.86862e-08
5.65894e-08
1.56454e-06
2.01856e-06
1.7033e-06
2.70374e-07
6.90688e-09
7.05788e-09
4.09601e-05
3.58824e-05
1.03732e-06
3.13807e-08
4.27492e-08
3.81828e-08
5.81724e-09
1.20866e-06
8.05931e-07
5.11789e-07
8.866e-19
9.02891e-15
1.21253e-06
5.71835e-15
3.02141e-19
1.87108e-08
2.42934e-09
2.45427e-09
2.42904e-09
2.3504e-09
2.94831e-09
6.45258e-09
6.78735e-09
1.93557e-05
4.27957e-05
4.31718e-05
8.91549e-06
2.19493e-07
8.18102e-08
4.44549e-06
1.29283e-05
1.29167e-05
5.52338e-06
1.62747e-23
8.14538e-25
-1.99585e-24
-5.96494e-11
-3.73067e-11
2.84193e-08
8.51458e-09
2.42934e-09
2.35069e-09
2.388e-09
2.24045e-09
2.34275e-09
4.18294e-09
7.24963e-09
3.81928e-06
6.86751e-06
4.66862e-06
6.90747e-06
1.24877e-05
1.36713e-05
1.34047e-05
1.01169e-05
3.03344e-06
5.19509e-09
9.40844e-08
8.59594e-08
3.03992e-08
1.99618e-10
3.00092e-08
1.14441e-08
2.65413e-09
7.58682e-08
1.30132e-06
5.87737e-06
2.30626e-06
1.20898e-06
1.57144e-07
4.82499e-06
6.03081e-06
5.86404e-06
1.27674e-05
1.6271e-05
2.51254e-05
5.47657e-05
5.5318e-05
5.57765e-05
4.63164e-05
3.95909e-06
9.24298e-07
2.8871e-07
5.8664e-25
2.94772e-08
8.4235e-09
2.67973e-09
4.65786e-06
2.49758e-05
3.12215e-05
2.56114e-05
9.26517e-06
3.31314e-06
1.02973e-05
2.58365e-05
3.12352e-05
9.56637e-05
9.64817e-05
9.64683e-05
6.70951e-05
1.73082e-05
1.40783e-05
1.52709e-05
1.75127e-06
6.43593e-07
1.66208e-07
2.17923e-25
2.76941e-08
6.98598e-09
2.69795e-09
1.17972e-05
3.20463e-05
3.18632e-05
2.95562e-05
4.99758e-06
1.56663e-05
9.47425e-05
0.000102106
9.77327e-05
7.12861e-05
1.21314e-05
2.92125e-06
8.77935e-06
1.16379e-05
1.18754e-05
1.808e-05
1.95772e-05
1.95182e-05
1.69363e-05
1.52963e-05
2.65326e-08
5.95829e-09
2.71208e-09
9.55352e-06
3.19007e-05
2.41512e-05
2.64463e-08
9.56911e-07
4.35872e-05
9.23735e-05
8.14355e-05
2.70431e-07
1.24285e-08
1.25151e-08
5.41374e-06
2.36486e-05
2.34585e-05
2.32585e-05
9.54849e-06
3.87758e-06
7.17863e-06
8.58119e-06
1.30566e-05
2.61416e-08
5.14214e-09
6.20348e-08
4.71104e-07
1.75116e-09
2.30569e-09
2.32041e-08
1.43329e-06
3.54315e-06
2.24289e-06
4.62533e-09
4.62499e-09
1.23423e-08
1.50293e-08
2.91928e-06
6.15486e-06
5.3847e-06
1.68882e-08
1.65582e-08
7.49699e-08
1.08136e-07
4.90704e-06
1.31842e-05
2.69975e-08
5.10284e-09
4.20694e-09
1.75116e-09
1.76789e-09
3.16992e-09
3.18329e-08
2.5362e-08
4.61456e-09
4.61279e-09
5.84956e-09
3.172e-08
6.15471e-08
6.14889e-08
1.73872e-08
1.72689e-08
1.70737e-08
1.68793e-08
1.6228e-08
8.82904e-08
4.04623e-07
1.10183e-06
2.00808e-06
2.94036e-08
3.05287e-09
2.30991e-09
1.92509e-09
6.28349e-09
4.81439e-08
1.06375e-07
1.15351e-07
6.90513e-08
1.44901e-08
4.24841e-09
1.08471e-08
1.82898e-08
2.29993e-08
2.24202e-08
2.59053e-08
2.36152e-08
1.71501e-08
1.32222e-08
1.91337e-08
3.07588e-08
2.70875e-08
1.00057e-08
2.98135e-08
2.49463e-09
1.71018e-09
3.16255e-09
7.08948e-09
5.26006e-08
1.17635e-07
1.37447e-07
1.21074e-07
4.75029e-08
3.84641e-09
4.60939e-09
4.69669e-09
3.89033e-09
4.44794e-09
6.6936e-09
9.2093e-09
1.07567e-08
1.0902e-08
9.41074e-09
8.63017e-09
8.18493e-09
1.00068e-08
3.2187e-08
2.30258e-09
1.70905e-09
3.20139e-09
4.29851e-09
5.34195e-09
3.21724e-08
7.08584e-08
6.27098e-08
1.22677e-08
3.83063e-09
4.66291e-09
4.45592e-09
3.88459e-09
3.35073e-09
3.0212e-09
3.45162e-09
4.7331e-09
6.19069e-09
6.43293e-09
6.20841e-09
6.65979e-09
7.53232e-09
3.21421e-08
2.13235e-09
1.70127e-09
2.20846e-09
2.11692e-09
1.33939e-09
7.40549e-10
7.40189e-10
7.42197e-10
9.62166e-10
2.87893e-09
3.78846e-09
3.16957e-09
2.5141e-09
2.25075e-09
2.16059e-09
2.16673e-09
2.3375e-09
2.70827e-09
3.52537e-09
3.99748e-09
4.41797e-09
4.9672e-09
1.67539e-08
1.75553e-09
1.57767e-09
1.57782e-09
1.37927e-09
1.11485e-09
8.83476e-10
7.42165e-10
7.58427e-10
1.00377e-09
1.27357e-09
1.41042e-09
1.33654e-09
1.19299e-09
1.13026e-09
1.12703e-09
1.18777e-09
1.34553e-09
1.63067e-09
2.04596e-09
2.38929e-09
2.88492e-09
3.22626e-09
3.09108e-09
3.08972e-09
2.01141e-09
1.98756e-09
1.59102e-09
1.26329e-09
1.00064e-09
7.99403e-10
6.5959e-10
5.63092e-10
5.07527e-10
4.84753e-10
4.83588e-10
4.9066e-10
5.06668e-10
5.46987e-10
6.13006e-10
7.17789e-10
8.69114e-10
1.18773e-09
1.41448e-09
1.68704e-09
1.97819e-09
3.52552e-09
3.57492e-09
2.80414e-09
2.67256e-09
2.04932e-09
1.55212e-09
1.14293e-09
8.2069e-10
5.72962e-10
4.04279e-10
2.92005e-10
2.25775e-10
1.96938e-10
1.93757e-10
2.10571e-10
2.41943e-10
2.8862e-10
3.52651e-10
4.42436e-10
6.04142e-10
7.50668e-10
9.76528e-10
1.16227e-09
4.21761e-09
4.06381e-09
3.37017e-09
3.3307e-09
2.54992e-09
1.97234e-09
1.48393e-09
1.08847e-09
7.47957e-10
5.00345e-10
3.17555e-10
1.89237e-10
1.1698e-10
8.68827e-11
8.36866e-11
9.65876e-11
1.19691e-10
1.5254e-10
1.97822e-10
2.93756e-10
3.76535e-10
4.94473e-10
6.36375e-10
5.19601e-09
4.44172e-09
4.12356e-09
4.01223e-09
2.736e-09
2.16465e-09
1.77319e-09
1.36873e-09
9.88205e-10
7.05617e-10
4.71115e-10
2.72087e-10
1.39767e-10
6.83702e-11
4.03621e-11
3.61582e-11
4.32131e-11
5.71054e-11
7.79066e-11
1.2017e-10
1.64621e-10
2.44236e-10
3.27558e-10
5.83208e-09
5.3369e-09
5.38785e-09
4.76334e-09
3.25226e-09
3.18289e-09
1.67959e-09
1.44841e-09
1.10192e-09
8.91719e-10
6.70509e-10
4.21619e-10
2.24173e-10
9.9234e-11
3.92352e-11
1.83762e-11
1.49695e-11
1.8888e-11
2.7807e-11
4.71643e-11
6.95861e-11
1.07881e-10
1.61814e-10
6.36817e-09
6.78968e-09
7.63527e-09
1.70471e-08
5.91043e-08
7.91429e-08
9.70458e-09
1.02815e-09
9.14282e-10
9.47119e-10
8.36789e-10
5.92417e-10
3.46188e-10
1.6553e-10
6.24103e-11
2.04503e-11
7.9651e-12
6.36457e-12
9.05331e-12
1.69225e-11
2.89708e-11
5.06387e-11
8.07341e-11
6.55004e-09
7.70201e-09
1.17739e-08
1.0261e-07
5.95963e-07
6.9696e-07
1.33191e-07
6.15623e-09
5.5775e-10
8.18758e-10
9.15623e-10
7.33279e-10
4.77485e-10
2.49887e-10
1.01126e-10
3.23964e-11
9.50723e-12
3.49149e-12
3.26553e-12
6.2624e-12
1.192e-11
2.45983e-11
4.40541e-11
7.69998e-09
7.69702e-09
2.98621e-08
3.70426e-07
8.21833e-07
8.21833e-07
8.05435e-07
7.21798e-08
5.56422e-10
6.13029e-10
9.19545e-10
8.14999e-10
5.74703e-10
3.29468e-10
1.44371e-10
5.10566e-11
1.49193e-11
3.91146e-12
1.75514e-12
2.71107e-12
5.83518e-12
1.29167e-11
2.5588e-11
1.15917e-08
1.53658e-08
4.4024e-08
4.89513e-07
8.21833e-07
8.21833e-07
8.21833e-07
2.70564e-07
5.67695e-10
6.23284e-10
9.17705e-10
8.48525e-10
6.21206e-10
3.82465e-10
1.89345e-10
7.18573e-11
2.15179e-11
5.55201e-12
1.51088e-12
1.21254e-12
2.47078e-12
7.12842e-12
1.47641e-11
2.8808e-08
1.0929e-08
3.98782e-08
3.27834e-07
8.21833e-07
8.21833e-07
6.41004e-07
5.18564e-09
7.21152e-10
6.76404e-10
9.75378e-10
8.60695e-10
6.12423e-10
3.94673e-10
2.06358e-10
8.57254e-11
2.90034e-11
7.56414e-12
1.81268e-12
7.58517e-13
1.36208e-12
3.67425e-12
8.6622e-12
2.91619e-08
1.03016e-08
2.20373e-08
7.4978e-08
3.33299e-07
7.41584e-07
7.26513e-08
1.28674e-09
1.28516e-09
6.70173e-10
1.02386e-09
8.72358e-10
5.84953e-10
3.66842e-10
1.98213e-10
8.76449e-11
3.21013e-11
9.2545e-12
2.16541e-12
5.53131e-13
5.13413e-13
1.76985e-12
4.4031e-12
2.87503e-08
1.02995e-08
1.05839e-08
2.03022e-08
5.05281e-08
5.5164e-08
5.25327e-08
4.28074e-09
1.02719e-09
5.92084e-10
1.00106e-09
8.52419e-10
5.3419e-10
3.16116e-10
1.65937e-10
7.58562e-11
2.97013e-11
9.38321e-12
2.32574e-12
5.20748e-13
2.87574e-13
6.82354e-13
2.15752e-12
3.32967e-08
1.6066e-08
1.64977e-08
2.23986e-08
6.18656e-08
6.05795e-08
6.12371e-08
1.21706e-08
1.81574e-09
4.6395e-10
8.7321e-10
7.65241e-10
4.58121e-10
2.52645e-10
1.24155e-10
5.54276e-11
2.24638e-11
7.68347e-12
2.11239e-12
4.65085e-13
1.44596e-13
2.53239e-13
7.98588e-13
3.614e-08
4.31144e-08
7.39486e-08
1.58167e-07
2.31486e-07
2.23795e-07
7.68349e-08
1.18884e-08
2.57767e-09
4.23723e-10
6.54075e-10
6.00114e-10
3.5882e-10
1.84307e-10
8.16038e-11
3.38617e-11
1.35492e-11
4.84977e-12
1.49197e-12
3.56812e-13
8.32019e-14
6.27801e-14
3.10748e-13
3.61377e-08
6.39766e-08
2.12929e-07
2.31606e-07
2.31596e-07
1.76981e-07
4.25927e-08
1.07707e-08
2.45082e-09
3.55295e-10
4.0726e-10
3.98239e-10
2.42591e-10
1.18415e-10
4.69019e-11
1.71364e-11
6.21665e-12
2.25345e-12
7.43155e-13
2.0812e-13
4.60028e-14
2.41938e-14
7.60031e-14
1.1396e-07
1.22882e-07
1.70197e-07
1.40217e-07
5.9463e-08
1.21492e-08
4.94596e-09
3.15514e-09
1.27119e-09
2.31267e-10
2.02501e-10
2.10121e-10
1.34989e-10
6.41807e-11
2.2681e-11
6.93441e-12
2.12912e-12
6.83263e-13
2.43235e-13
8.23814e-14
2.18722e-14
6.26642e-15
2.12859e-14
3.63109e-07
3.55346e-07
6.61345e-08
1.4269e-08
7.34454e-10
2.50531e-11
1.54342e-12
1.10131e-10
3.9048e-10
9.56144e-11
7.16856e-11
8.24049e-11
5.77303e-11
2.74162e-11
9.00961e-12
2.26396e-12
5.22694e-13
1.33255e-13
4.68558e-14
2.12755e-14
6.18475e-15
1.93191e-15
4.15051e-15
3.63109e-07
1.75778e-07
2.63774e-08
2.52136e-09
2.09771e-10
2.53669e-11
3.03288e-12
1.36525e-13
1.0563e-10
2.13893e-11
1.61752e-11
2.09551e-11
1.67721e-11
8.12152e-12
2.52814e-12
5.27391e-13
8.63146e-14
1.43928e-14
5.13827e-15
3.47133e-15
1.33177e-15
4.91784e-16
8.4176e-16
1.21751e-07
2.44124e-08
2.7418e-09
2.5985e-10
5.61918e-11
8.55687e-12
8.19201e-13
4.9549e-14
1.92046e-11
1.77513e-12
1.23982e-12
2.63143e-12
2.39102e-12
1.19985e-12
3.42389e-13
5.89754e-14
6.67332e-15
7.31498e-16
2.99106e-16
3.64409e-16
2.68633e-16
1.27345e-16
1.54264e-16
0.229026
0.205935
0.205552
0.178637
0.00748606
0.00757712
0.00650143
0.00162985
0.834426
0.748345
0.208413
0.0112808
0.952069
0.976721
0.975945
0.983254
0.935936
0.940207
0.97942
0.993083
0.975926
0.985459
0.986379
0.992333
0.995497
0.998228
0.998229
0.998228
0.978786
0.980134
0.981733
0.988583
0.397112
0.435779
0.468788
0.519915
6.13095e-19
0.000422136
0.00160812
0.0035422
-9.75046e-12
4.5345e-05
3.50523e-05
3.75827e-08
2.13755e-27
2.6678e-05
7.00159e-05
7.00159e-05
-3.62405e-15
2.52201e-05
7.00159e-05
7.00159e-05
-3.18248e-17
2.31379e-05
4.79209e-05
6.10437e-05
1.86678e-05
2.00993e-05
1.11964e-05
2.94962e-06
2.0486e-05
2.05548e-05
2.05362e-05
7.69303e-06
1.62882e-05
1.55899e-05
1.37885e-05
7.52169e-06
1.23591e-06
1.07591e-06
1.00538e-06
1.04588e-06
3.54602e-08
2.37189e-07
2.16126e-07
1.62789e-07
1.36209e-08
2.81568e-08
3.71739e-08
2.89291e-08
9.09188e-09
1.22598e-08
1.26205e-08
1.23635e-08
5.46005e-09
5.96017e-09
7.20191e-09
7.57836e-09
3.53348e-09
3.93786e-09
4.248e-09
4.51167e-09
2.19418e-09
2.33719e-09
2.60088e-09
2.70658e-09
1.35199e-09
1.50702e-09
1.59828e-09
1.67444e-09
7.72533e-10
8.55087e-10
9.78085e-10
1.04335e-09
4.23314e-10
5.01995e-10
5.64842e-10
6.17163e-10
2.26313e-10
2.73548e-10
3.3075e-10
3.7416e-10
1.26046e-10
1.60652e-10
1.988e-10
2.30695e-10
7.27872e-11
9.84459e-11
1.25281e-10
1.54269e-10
4.5895e-11
6.14621e-11
8.73703e-11
1.05507e-10
2.7826e-11
4.33058e-11
5.65296e-11
7.63298e-11
1.77039e-11
2.51454e-11
3.89928e-11
4.9211e-11
9.99365e-12
1.55341e-11
2.18465e-11
3.27305e-11
4.8492e-12
7.37479e-12
1.24949e-11
1.60673e-11
2.37354e-12
3.74166e-12
5.71156e-12
9.47679e-12
8.88583e-13
1.46624e-12
2.78178e-12
3.8624e-12
3.27228e-13
5.69785e-13
9.3353e-13
1.74703e-12
7.94071e-14
1.52601e-13
3.38524e-13
4.76544e-13
2.04551e-14
4.39468e-14
7.78973e-14
1.7305e-13
4.02216e-15
8.57912e-15
2.19856e-14
4.60283e-14
7.13374e-16
1.83224e-15
4.86951e-15
1.06461e-14
0.0108201
0.000346605
0.00593703
0.08638
0.255426
0.0873015
0.0233691
0.0210097
0.0701013
0.236704
0.293827
0.300894
0.319383
0.50889
0.677151
0.473435
0.181909
0.123771
0.136051
0.000875573
0.000351796
0.00205878
0.00665927
0.085484
0.119739
0.0398307
0.0209399
0.0534236
0.0876289
0.122174
0.45616
0.797404
0.839267
0.840251
0.84126
0.65111
0.539552
0.491491
0.00680684
6.2033e-05
0.000304304
0.00285702
0.00943361
0.0260415
0.0258883
0.0394303
0.261895
0.441135
0.412903
0.357214
0.63477
0.811396
0.809115
0.926647
0.941571
0.890714
0.890406
0.887791
0.305087
7.63494e-05
7.56113e-05
0.000561448
0.00491067
0.0691502
0.507121
0.76792
0.80525
0.458188
0.312748
0.312713
0.312688
0.503484
0.897864
0.972
0.984259
0.97837
0.997697
0.947997
0.806811
0.544827
0.333146
0.304011
0.595981
0.893422
0.934226
0.965497
0.915964
0.523206
0.375845
0.609358
0.826504
0.920723
0.965117
0.9884
0.986156
0.998462
0.996566
0.979277
0.966191
0.97037
0.951741
0.927917
0.983593
0.991433
0.992418
0.942088
0.878629
0.905432
0.981158
0.991481
0.991472
0.980455
0.988396
0.984062
0.997544
0.99847
0.99869
0.998691
0.998693
0.998474
0.994151
0.994824
0.997397
0.997665
0.980722
0.949472
0.968364
0.993539
0.9911
0.984847
0.985997
0.988396
0.980153
0.995348
0.994224
0.995777
0.998471
0.998695
0.998694
0.998695
0.998693
0.998693
0.998692
0.99869
0.997163
0.993895
0.993845
0.982971
0.974624
0.988392
0.988396
0.982378
0.501854
0.498351
0.561236
0.620162
0.68279
0.819293
0.945773
0.997783
0.997889
0.997858
0.997851
0.998249
0.998229
0.995077
0.899992
0.881351
0.980863
0.988398
0.988406
0.0042028
0.00357423
0.00865163
0.0182378
0.0308466
0.0927911
0.237613
0.562444
0.816476
0.91219
0.919153
0.951886
0.952015
0.66903
0.206132
0.18588
0.439986
0.668942
0.617698
1.46957e-21
-1.17901e-21
-2.66709e-11
-1.35842e-17
8.40219e-21
-7.07094e-20
5.43509e-06
0.0165235
0.209843
0.481296
0.601664
0.553466
0.174517
7.34541e-18
7.46956e-18
8.47284e-18
-2.30318e-21
0.00204401
0
4.67294e-05
3.15573e-06
1.23052e-07
1.35788e-17
2.96123e-15
2.27696e-14
1.51429e-19
2.3534e-20
-1.34203e-18
0.0125418
0.0175801
0.000705846
9.55111e-11
7.54502e-10
4.68849e-09
3.59523e-09
6.92053e-11
-1.90601e-12
-8.66806e-13
5.17579e-05
1.3582e-06
1.46122e-07
3.73859e-07
5.90214e-07
6.06387e-07
2.54962e-07
9.76292e-08
6.46307e-10
9.08684e-10
9.09096e-10
9.08675e-10
5.71176e-09
1.29131e-08
1.87766e-08
1.44162e-08
2.50121e-08
1.83801e-08
2.81931e-08
8.53264e-06
7.4752e-07
2.70138e-08
6.88186e-08
7.93006e-08
7.69071e-08
7.68727e-08
1.47477e-07
3.28695e-08
3.88444e-09
3.31753e-09
4.53382e-09
1.34298e-08
3.98864e-09
4.21646e-09
4.45242e-09
2.80989e-07
2.65741e-08
4.06281e-08
8.05355e-07
5.03453e-07
3.19283e-08
2.63627e-06
4.97555e-11
7.42328e-13
4.88007e-13
8.38497e-08
3.09115e-08
6.88473e-09
2.99725e-09
3.15958e-09
2.40364e-09
1.48765e-09
2.54001e-06
5.57004e-06
5.48698e-07
2.73868e-09
7.93553e-08
8.3599e-06
1.99989e-05
1.95521e-05
3.41596e-06
0.0001437
0.000168439
5.88011e-05
2.76477e-14
1.30446e-10
1.36366e-09
4.36258e-10
5.0442e-11
7.71773e-07
3.67479e-05
8.97782e-05
3.98953e-05
1.04649e-09
1.67052e-09
8.41624e-08
9.72975e-06
1.43897e-05
1.3061e-05
1.26058e-05
0.000137723
0.000230651
0.000230849
0.000109066
2.96881e-05
7.57021e-12
8.51273e-12
1.57441e-05
0.000178121
0.000198365
0.000120958
4.71323e-05
1.05584e-09
1.77236e-08
1.47459e-07
7.18588e-07
1.81407e-07
1.55892e-07
7.55705e-06
1.08854e-05
0.00010597
0.000196388
0.000304081
0.000304053
0.000271583
0.000272647
0.000312024
0.000312794
0.000240559
2.39715e-05
1.08616e-09
1.05252e-09
1.85337e-08
2.37655e-07
7.52537e-08
2.65694e-08
3.13242e-08
5.13175e-08
6.73312e-08
1.53438e-07
1.85765e-05
8.04175e-05
0.000124603
0.000138917
0.000270194
0.000294663
0.000148983
7.6635e-06
5.69039e-06
2.23376e-07
1.06316e-09
5.39173e-05
7.6261e-05
2.29121e-08
2.48376e-08
3.64303e-08
6.10289e-08
1.1955e-07
1.40084e-07
2.22259e-07
2.33829e-07
1.05016e-07
3.48588e-07
2.10474e-05
1.51775e-05
2.80824e-06
4.82132e-06
1.24487e-05
4.39405e-06
6.31946e-09
0.000211795
0.000194923
1.34143e-08
1.57713e-08
2.80387e-08
1.34523e-07
2.99592e-07
2.99055e-07
2.22867e-07
1.3677e-07
7.35671e-08
5.59306e-08
1.75426e-07
1.82854e-07
3.21972e-07
1.67775e-05
1.79805e-05
5.83289e-06
0.000110184
0.000236073
0.00016053
8.40378e-09
9.51437e-09
1.26538e-08
7.73157e-08
2.21165e-07
3.02235e-07
3.01814e-07
1.89407e-07
5.24549e-08
2.05307e-08
3.53137e-08
3.19081e-08
7.34813e-08
3.29698e-06
3.38818e-06
0.000151611
0.000235099
0.000237204
0.000100086
4.89049e-09
5.67759e-09
5.95354e-09
1.12344e-08
4.50692e-08
1.30209e-07
1.49514e-07
7.95608e-08
2.19842e-08
9.16678e-09
1.2697e-08
1.752e-08
1.32356e-08
5.80922e-08
6.98149e-06
0.00010259
0.000143038
0.000214011
5.06662e-05
2.85395e-09
3.21188e-09
3.64066e-09
3.2828e-09
3.9143e-09
1.14914e-08
2.59203e-08
1.90295e-08
8.45325e-09
6.83729e-09
9.60291e-09
1.80557e-08
9.64849e-09
4.65382e-10
8.27142e-06
6.55856e-06
6.55668e-07
1.77961e-05
4.14383e-05
1.75662e-09
1.97685e-09
2.2124e-09
2.41464e-09
2.48688e-09
3.19444e-09
5.2721e-09
6.46099e-09
6.03424e-09
6.41369e-09
8.00105e-09
1.3632e-08
6.79756e-09
5.26445e-11
2.42295e-07
2.12585e-08
2.02627e-08
1.0553e-07
0.000102245
1.11364e-09
1.27717e-09
1.45644e-09
1.65786e-09
1.92685e-09
2.36464e-09
3.18366e-09
4.16504e-09
5.09879e-09
5.79188e-09
6.4026e-09
8.0616e-09
2.27919e-08
5.55916e-08
5.24529e-07
4.02496e-07
2.32714e-07
1.49662e-08
0.000186494
6.79012e-10
8.33045e-10
9.95286e-10
1.19006e-09
1.45301e-09
1.84042e-09
2.49633e-09
3.32224e-09
4.30647e-09
5.1021e-09
6.04286e-09
1.17443e-08
1.27153e-08
1.27272e-06
1.48406e-06
1.48629e-06
6.8582e-07
1.60441e-08
0.000185184
4.21784e-10
5.52448e-10
7.03338e-10
8.90464e-10
1.13303e-09
1.45329e-09
1.96051e-09
2.66494e-09
3.54436e-09
4.42937e-09
5.48579e-09
1.12752e-08
3.9779e-08
7.80257e-07
1.48629e-06
8.37167e-07
3.39252e-07
1.39334e-08
0.000145959
2.71081e-10
3.80846e-10
5.1901e-10
6.91242e-10
9.09181e-10
1.19641e-09
1.60548e-09
2.20544e-09
2.88653e-09
3.76038e-09
4.72144e-09
8.32632e-09
3.6136e-08
1.0665e-07
3.41446e-07
2.05609e-07
1.73774e-07
1.03055e-07
1.67897e-05
1.8608e-10
2.75464e-10
3.9897e-10
5.56684e-10
7.6193e-10
1.02532e-09
1.37827e-09
1.87489e-09
2.55581e-09
3.27917e-09
4.05647e-09
5.86478e-09
1.90835e-08
8.42818e-08
1.29518e-06
3.30176e-06
6.68825e-07
1.07387e-07
2.73121e-07
1.32084e-10
2.07326e-10
3.14327e-10
4.53288e-10
6.41612e-10
8.8212e-10
1.23078e-09
1.72137e-09
2.44172e-09
3.34832e-09
4.2842e-09
5.42419e-09
1.34538e-08
7.57034e-08
2.94434e-06
7.28417e-06
6.96963e-06
2.31544e-06
1.62489e-06
9.56174e-11
1.55036e-10
2.44997e-10
3.60267e-10
5.23476e-10
7.41401e-10
1.05657e-09
1.55387e-09
2.39349e-09
3.77084e-09
5.36672e-09
6.68028e-09
9.08896e-09
4.41815e-08
1.83762e-06
7.31068e-06
7.32139e-06
7.22476e-06
5.99354e-06
6.58489e-11
1.12161e-10
1.76549e-10
2.70618e-10
3.98192e-10
5.82645e-10
8.43616e-10
1.27132e-09
2.07457e-09
3.72843e-09
6.9883e-09
1.10729e-08
1.23768e-08
1.97286e-08
1.80143e-07
3.07598e-06
7.32698e-06
7.30631e-06
1.45709e-06
4.22449e-11
7.50826e-11
1.20872e-10
1.88788e-10
2.8574e-10
4.20218e-10
6.183e-10
9.64639e-10
1.62884e-09
3.05083e-09
7.08389e-09
1.7479e-08
3.70749e-08
4.87167e-08
4.87622e-08
1.39314e-07
2.62319e-06
2.59947e-06
1.535e-08
2.54241e-11
4.53847e-11
7.62961e-11
1.21637e-10
1.87961e-10
2.79597e-10
4.26312e-10
6.78801e-10
1.13502e-09
2.12772e-09
4.58587e-09
1.52674e-08
6.68313e-08
1.41542e-07
9.78204e-08
5.12266e-08
5.54789e-08
1.53499e-08
1.535e-08
1.31656e-11
2.5111e-11
4.37515e-11
7.11526e-11
1.11597e-10
1.73193e-10
2.67526e-10
4.36445e-10
7.49173e-10
1.37361e-09
2.7169e-09
7.4919e-09
4.04719e-08
1.64277e-07
2.17045e-07
6.90106e-08
1.98498e-08
1.68512e-08
5.50678e-08
6.22425e-12
1.23055e-11
2.2416e-11
3.76243e-11
6.09792e-11
9.70172e-11
1.55757e-10
2.57584e-10
4.55962e-10
8.56067e-10
1.69379e-09
3.70332e-09
1.33211e-08
7.60195e-08
2.34596e-07
2.40071e-07
5.34672e-08
2.09451e-08
2.28957e-07
2.5399e-12
5.43703e-12
1.02686e-11
1.79515e-11
3.03639e-11
4.98808e-11
8.22845e-11
1.40978e-10
2.54263e-10
4.85519e-10
9.62465e-10
1.94717e-09
4.43365e-09
2.03169e-08
1.23368e-07
2.5723e-07
2.28796e-07
1.65621e-07
2.44804e-07
9.70246e-13
2.1153e-12
4.16399e-12
7.80721e-12
1.36132e-11
2.40092e-11
4.1043e-11
7.2608e-11
1.36334e-10
2.68528e-10
5.67816e-10
1.19465e-09
2.48017e-09
6.1591e-09
3.10521e-08
1.98154e-07
2.55172e-07
2.48927e-07
1.8986e-07
2.97951e-13
7.01351e-13
1.46876e-12
2.87157e-12
5.44594e-12
9.96587e-12
1.8254e-11
3.34673e-11
6.47004e-11
1.32344e-10
2.89225e-10
6.34309e-10
1.34518e-09
2.85527e-09
9.0343e-09
5.3733e-08
2.46251e-07
2.56456e-07
4.23901e-08
8.08899e-14
2.02251e-13
4.45167e-13
9.26434e-13
1.90825e-12
3.81442e-12
7.45611e-12
1.44839e-11
2.87913e-11
6.05734e-11
1.36452e-10
3.15395e-10
6.98688e-10
1.43971e-09
3.15639e-09
1.18075e-08
7.64923e-08
1.3784e-07
1.13483e-08
1.9689e-14
5.28128e-14
1.25367e-13
2.82727e-13
6.23243e-13
1.35784e-12
2.84622e-12
5.891e-12
1.218e-11
2.59758e-11
5.97518e-11
1.43966e-10
3.41843e-10
7.3775e-10
1.40905e-09
2.82316e-09
6.91144e-09
9.26071e-09
4.21388e-09
)
;

boundaryField
{
    leftWall
    {
        type            zeroGradient;
    }
    rightWall
    {
        type            zeroGradient;
    }
    lowerWall
    {
        type            zeroGradient;
    }
    atmosphere
    {
        type            inletOutlet;
        inletValue      uniform 0;
        value           nonuniform List<scalar> 
46
(
1.21751e-07
2.44124e-08
2.7418e-09
2.5985e-10
0
0
0
0
0
0
0
0
0
0
0
0
0
0
0
0
2.68633e-16
1.27345e-16
1.54264e-16
7.13374e-16
1.83224e-15
4.86951e-15
1.06461e-14
1.9689e-14
5.28128e-14
1.25367e-13
2.82727e-13
6.23243e-13
1.35784e-12
2.84622e-12
5.891e-12
1.218e-11
2.59758e-11
5.97518e-11
1.43966e-10
3.41843e-10
7.3775e-10
1.40905e-09
2.82316e-09
6.91144e-09
9.26071e-09
4.21388e-09
)
;
    }
    defaultFaces
    {
        type            empty;
    }
}


// ************************************************************************* //
