/*--------------------------------*- C++ -*----------------------------------*\
| =========                 |                                                 |
| \\      /  F ield         | OpenFOAM: The Open Source CFD Toolbox           |
|  \\    /   O peration     | Version:  2312                                  |
|   \\  /    A nd           | Website:  www.openfoam.com                      |
|    \\/     M anipulation  |                                                 |
\*---------------------------------------------------------------------------*/
FoamFile
{
    version     2.0;
    format      ascii;
    arch        "LSB;label=32;scalar=64";
    class       volScalarField;
    location    "3.05";
    object      alpha.water;
}
// * * * * * * * * * * * * * * * * * * * * * * * * * * * * * * * * * * * * * //

dimensions      [0 0 0 0 0 0 0];

internalField   nonuniform List<scalar> 
2268
(
2.09809e-07
2.62664e-08
1.22714e-09
3.08119e-10
2.11732e-10
1.04681e-10
5.38086e-11
4.30026e-11
3.65869e-11
3.59012e-11
3.72712e-11
4.18907e-11
4.96205e-11
6.12007e-11
7.75566e-11
1.00412e-10
1.4905e-10
2.25471e-10
3.34151e-10
5.62357e-10
9.27096e-10
1.23503e-09
1.38498e-09
4.72797e-07
1.29926e-07
1.1722e-10
2.67657e-10
2.06756e-10
1.32758e-10
9.93829e-11
8.39027e-11
6.40199e-11
5.23899e-11
5.24542e-11
6.04436e-11
8.24031e-11
1.02525e-10
1.2696e-10
1.59379e-10
2.48749e-10
4.16943e-10
6.58268e-10
1.04293e-09
1.81863e-09
2.28921e-09
1.68651e-09
4.72575e-07
8.29835e-08
-8.08071e-16
3.02585e-10
2.53979e-10
2.82056e-10
2.78343e-10
1.97063e-10
1.17257e-10
1.07987e-10
9.84394e-11
1.00128e-10
2.45019e-10
1.26583e-10
1.84725e-10
1.84484e-10
2.2924e-10
3.22449e-10
4.87971e-10
9.64591e-10
2.0427e-09
3.17963e-09
1.43531e-09
1.11076e-07
3.83022e-08
-6.41854e-29
2.02399e-10
1.69296e-10
1.76454e-10
1.73917e-10
2.6159e-10
6.3073e-10
6.36593e-10
3.30535e-10
3.33995e-10
1.28105e-09
9.48905e-11
9.53501e-11
5.02858e-09
8.51626e-11
8.56241e-11
8.51707e-11
8.55687e-10
1.20076e-09
1.266e-09
1.43531e-09
3.31775e-08
1.06832e-08
-7.4431e-30
4.51071e-11
3.60389e-11
5.73835e-11
6.5817e-11
5.43552e-20
4.27179e-21
6.17907e-20
-6.60249e-20
3.46437e-20
-7.73194e-21
1.02812e-19
0.000111914
0.00127019
0.00283029
0.00546862
0.0110244
0.0225186
0.0433254
0.0727603
0.0872465
3.07128e-28
8.91866e-27
-1.7811e-20
8.3014e-30
1.28431e-29
1.33184e-23
-2.0517e-20
0.00272082
0.0326766
0.0956383
0.175524
0.24895
0.304858
0.35085
0.408604
0.452949
0.488221
0.527108
0.579452
0.641671
0.707997
0.776054
0.79905
0.0365119
0.0377607
0.0406287
0.0508409
0.0785013
0.145639
0.283467
0.487481
0.693496
0.825812
0.908916
0.956807
0.97935
0.974184
0.957135
0.953628
0.9712
0.969054
0.966295
0.97754
0.980531
0.979562
0.978495
0.693344
0.694974
0.702804
0.72927
0.783031
0.863701
0.944366
0.998555
0.999527
0.999528
0.999528
0.999528
0.999489
0.981793
0.920062
0.944082
0.980531
0.980532
0.980532
0.980532
0.98053
0.977152
0.956954
0.0218887
0.0225433
0.019781
0.00891501
0.00738915
0.0127927
0.0194156
0.0195658
0.0195645
0.0181762
0.016412
0.0164276
0.0146861
0.0114286
0.00651867
0.00494192
0.00695978
0.00787734
0.00811897
0.015698
0.00981101
0.00981142
0.00869536
0.00736438
0.00706479
0.0086187
0.0125146
0.0157446
0.0148852
0.00658113
0.00482469
0.00443131
0.00436621
0.0043798
0.0043697
0.00438496
0.00437619
0.00736632
0.391477
0.0861741
0.0635392
0.0442975
0.00738915
0.00945238
0.0183912
0.0117369
0.00380768
0.00377402
0.00379806
0.00542405
0.0353411
0.101699
0.173522
0.172195
0.0897344
0.0695507
0.0544716
0.620805
0.529467
0.223456
0.189877
0.238259
0.393129
0.503816
0.442734
0.267341
0.125988
0.135515
0.238445
0.416454
0.653917
0.733376
0.733102
0.664325
0.577613
0.441888
0.622048
0.77719
0.543052
0.454395
0.694848
0.955101
0.955037
0.954623
0.733098
0.43233
0.399062
0.648767
0.881805
0.881824
0.881849
0.881664
0.881978
0.882021
0.810611
0.640728
0.787078
0.829916
0.45391
0.762274
0.952718
0.91079
0.7469
0.56
0.431902
0.481078
0.859612
0.88182
0.88184
0.881861
0.881876
0.881906
0.876608
0.876567
0.75724
0.846932
0.920923
0.525826
0.691504
0.945279
0.593688
0.435946
0.435972
0.436502
0.444036
0.826262
0.87938
0.881824
0.881761
0.862457
0.851501
0.876559
0.876519
0.796436
0.893098
0.941195
0.755233
0.682369
0.888201
0.928814
0.641394
0.472557
0.436255
0.535064
0.758142
0.865651
0.872936
0.784359
0.795322
0.837062
0.865973
0.876474
0.996195
0.997189
0.998623
0.99952
0.999521
0.999521
0.999515
0.999525
0.999527
0.999527
0.999527
0.999528
0.999528
0.999484
0.896602
0.806086
0.950756
0.977723
0.978572
0.980531
0.980531
0.888535
0.695186
0.999133
0.999135
0.99899
0.997619
0.996837
0.996831
0.99744
0.994794
0.994073
0.995541
0.997461
0.996029
0.982282
0.980024
0.919068
0.740789
0.831811
0.841861
0.840854
0.800205
0.725471
0.555571
0.55765
0.999137
0.999135
0.999135
0.998417
0.992266
0.932337
0.864482
0.795654
0.806826
0.858814
0.918478
0.934129
0.92378
0.849671
0.681742
0.542564
0.378687
0.229853
0.182062
0.11341
0.0733098
0.0662195
0.0896627
0.966844
0.937843
0.871034
0.730672
0.524486
0.216732
0.16003
0.233139
0.301159
0.372276
0.397837
0.39627
0.329297
0.203357
0.112373
0.051805
0.0015663
-7.23741e-08
-1.36344e-07
-1.49992e-07
2.10902e-18
2.31148e-18
0.019678
0.123956
0.0625577
0.000852696
0.000114397
0.000114588
0.0001144
0.000114586
0.0697104
0.0749705
0.00571232
0.00465115
0.000152085
2.52555e-11
-1.34658e-08
-1.38163e-07
-1.08224e-07
4.351e-06
6.53191e-05
0.00013357
0.000153963
0.00013561
2.0639e-06
0.000502585
0.00224269
0.00146945
0.00120153
0.00141644
0.000452261
0.00497807
0.0597132
0.0865759
0.049289
0.0134686
0.00030793
0.000302912
0.000190953
1.18733e-05
4.62362e-05
0.000105889
0.000138502
0.000210053
0.000300396
0.000394663
0.00248773
0.000789317
3.4976e-05
0.00490417
0.00490305
0.00354193
0.00144706
0.00529008
0.0066704
0.00658227
0.00142871
0.000857891
0.00116526
0.00376568
0.00520722
0.00520784
0.00319493
0.000113049
1.3237e-05
1.24631e-05
0.00182098
0.00273282
0.00114053
0.00159113
0.00349491
0.00332565
0.00294304
0.00301747
0.00191267
0.00024288
6.12594e-05
6.58172e-05
9.1139e-05
0.0022148
0.00272044
0.00186652
0.000158678
1.65744e-05
0.000180555
0.000387729
1.0722e-05
0.000442753
0.00499368
0.00911587
0.00911664
0.00661662
0.000684195
0.00146305
0.0171541
3.78451e-06
3.64182e-06
4.63586e-06
8.47519e-06
5.90893e-05
6.42567e-05
2.12786e-05
2.6399e-07
2.76554e-07
3.38314e-05
4.46575e-05
7.55994e-06
4.23203e-23
1.93778e-22
1.65004e-23
5.55068e-05
0.00137464
0.0036915
0.00529103
0.0041212
0.000187592
0.00217167
0.0204487
6.67887e-09
6.69753e-09
6.70344e-09
6.72128e-09
3.5284e-05
6.7237e-05
6.69484e-05
1.99721e-05
2.52643e-06
6.04418e-07
1.60555e-06
1.29347e-06
7.62584e-08
8.37179e-15
-2.98827e-12
9.15523e-06
2.22257e-06
2.35652e-06
2.21121e-05
8.13762e-05
7.64091e-07
0.000884331
0.00915272
1.86924e-08
2.39479e-08
4.0553e-08
2.6185e-08
2.73305e-08
2.26821e-05
2.59038e-05
9.86013e-06
4.31412e-06
7.91414e-07
6.96676e-07
3.04076e-09
-4.0155e-11
1.67031e-12
1.20461e-05
5.79791e-05
5.87082e-05
4.51915e-05
3.97824e-06
8.05937e-07
7.62289e-07
3.26062e-05
1.04942e-05
1.40986e-08
2.58369e-08
4.94313e-08
1.76255e-07
7.99815e-08
3.44471e-08
3.47951e-08
3.47932e-08
2.27555e-06
1.76128e-06
7.16396e-07
1.35679e-05
5.33259e-05
6.01533e-05
6.01278e-05
6.03981e-05
5.98207e-05
1.89937e-05
1.52687e-06
9.49707e-07
3.70635e-07
6.34396e-07
1.896e-06
1.31453e-08
1.2773e-08
2.61563e-09
6.7219e-07
1.55226e-06
1.16087e-06
4.34039e-07
3.50261e-08
7.25863e-07
2.66216e-05
2.79358e-05
2.32946e-05
1.42874e-05
1.08692e-05
1.06419e-05
1.55336e-05
1.68601e-05
1.64312e-05
4.26706e-06
3.32132e-07
3.32001e-07
7.86508e-07
4.06113e-06
1.23012e-08
9.93349e-09
2.62465e-09
7.37807e-07
2.02298e-06
2.02034e-06
1.5266e-06
3.80613e-07
2.23931e-07
2.92257e-07
4.09053e-06
1.05231e-05
2.82904e-05
5.52215e-05
5.54515e-05
5.54481e-05
4.70044e-05
1.00331e-05
3.32254e-07
3.31656e-07
3.49752e-07
7.55455e-07
7.93895e-06
1.18998e-08
7.78291e-09
2.62504e-09
2.43315e-07
1.32515e-06
1.40617e-06
8.11218e-07
8.09703e-08
4.06569e-07
2.42343e-05
4.75648e-05
5.27901e-05
5.45456e-05
5.4491e-05
2.2298e-05
4.358e-06
2.00746e-06
3.14725e-06
1.76623e-05
1.83968e-05
2.24209e-05
3.38745e-05
4.12812e-05
1.16663e-08
7.45303e-09
2.62491e-09
5.18713e-08
5.68111e-07
5.98561e-07
8.0969e-08
8.10004e-08
1.16292e-05
3.74263e-05
3.78182e-05
3.22059e-06
1.31485e-17
1.97705e-24
1.31485e-17
4.72271e-07
1.83953e-06
2.26657e-06
2.3552e-06
6.49994e-06
1.3231e-05
1.99877e-05
2.83885e-05
1.21936e-08
7.69246e-09
2.6614e-09
6.37007e-10
6.5568e-10
6.37007e-10
1.96223e-07
5.28647e-07
3.40005e-07
1.17445e-09
1.13419e-09
1.13029e-09
2.192e-08
1.50049e-07
1.49966e-07
5.93437e-08
1.34367e-09
1.31838e-09
1.32234e-09
1.35678e-08
2.85054e-08
9.13056e-08
5.94603e-07
1.22989e-08
7.34971e-09
5.52563e-09
2.95208e-09
1.92287e-09
4.84266e-09
6.41177e-09
2.69326e-09
1.18885e-09
1.19987e-09
2.45427e-09
7.87682e-09
1.29358e-08
1.23811e-08
7.084e-09
1.77289e-09
1.77378e-09
1.44918e-09
1.54621e-09
2.32043e-09
2.60141e-09
1.02062e-09
6.4822e-10
1.32609e-08
6.88916e-09
6.08023e-09
4.4669e-09
3.45282e-09
7.82539e-09
1.19751e-08
1.14029e-08
6.6822e-09
1.17111e-09
1.27918e-09
1.83484e-09
2.75419e-09
3.35097e-09
4.36085e-09
5.85934e-09
5.48619e-09
3.15588e-09
1.36865e-09
1.08026e-09
1.13093e-09
1.12702e-09
9.22222e-10
1.37197e-08
6.03076e-09
4.8967e-09
3.39911e-09
1.43393e-09
6.66141e-10
9.03766e-10
1.88762e-09
1.84667e-09
1.66931e-09
1.16903e-09
8.18955e-10
7.10314e-10
6.01153e-10
9.72578e-10
1.79436e-09
2.45014e-09
2.54155e-09
2.03732e-09
1.50175e-09
9.69558e-10
7.48535e-10
9.11665e-10
1.59253e-08
4.9196e-09
3.08586e-09
1.608e-09
4.0605e-10
1.24111e-10
1.23965e-10
1.33293e-10
2.26369e-10
3.5978e-10
4.53127e-10
5.01748e-10
4.88151e-10
5.1433e-10
6.65383e-10
9.02101e-10
1.06439e-09
1.23771e-09
1.28558e-09
8.8119e-10
6.56622e-10
5.0692e-10
5.19756e-10
1.79184e-08
3.56677e-09
1.82055e-09
8.59151e-10
2.96486e-10
1.47873e-10
1.21449e-10
1.20339e-10
1.32675e-10
1.49355e-10
1.8233e-10
2.0964e-10
2.36763e-10
2.70966e-10
3.47082e-10
4.48948e-10
5.18937e-10
5.46634e-10
5.55902e-10
4.81827e-10
3.08213e-10
2.58453e-10
2.70644e-10
5.24876e-08
2.01207e-09
1.2843e-09
8.17795e-10
3.03133e-10
1.34619e-10
9.79042e-11
8.58034e-11
8.02844e-11
8.37691e-11
9.04364e-11
9.74892e-11
1.09153e-10
1.23418e-10
1.50376e-10
1.85724e-10
2.11074e-10
2.30252e-10
2.43741e-10
2.04121e-10
1.43406e-10
1.30934e-10
1.41833e-10
7.18369e-08
1.78023e-09
9.20479e-10
5.86799e-10
2.99215e-10
1.51263e-10
9.8875e-11
7.36695e-11
5.53743e-11
4.6544e-11
4.20574e-11
4.2037e-11
4.53815e-11
5.13883e-11
5.99251e-11
6.83785e-11
7.54195e-11
8.10075e-11
8.3514e-11
7.66939e-11
6.33315e-11
6.21738e-11
7.07639e-11
1.15946e-07
2.56216e-10
2.55452e-10
3.00296e-10
2.49489e-10
1.86242e-10
1.42694e-10
1.06765e-10
7.2472e-11
4.47118e-11
3.04089e-11
2.28749e-11
1.94479e-11
1.90175e-11
2.03898e-11
2.21386e-11
2.39976e-11
2.5661e-11
2.66873e-11
2.57127e-11
2.55993e-11
2.82125e-11
3.37303e-11
1.19313e-07
8.33404e-09
2.09784e-10
2.64895e-10
2.82335e-10
2.52811e-10
2.12417e-10
1.62768e-10
1.08128e-10
6.62294e-11
4.07015e-11
2.32898e-11
1.33831e-11
8.64778e-12
6.92783e-12
6.59861e-12
6.75573e-12
7.15043e-12
7.51813e-12
8.24589e-12
9.19662e-12
1.11693e-11
1.47562e-11
1.76324e-07
3.02554e-08
2.10128e-10
2.89309e-10
3.64449e-10
3.48825e-10
3.12535e-10
2.52987e-10
1.64574e-10
1.03199e-10
6.55411e-11
3.75586e-11
1.8941e-11
8.65571e-12
4.03169e-12
2.34266e-12
1.78182e-12
1.78464e-12
1.95781e-12
2.39139e-12
2.96224e-12
4.22451e-12
5.94218e-12
1.76102e-07
7.38023e-08
2.09922e-10
3.09646e-10
4.57888e-10
4.59956e-10
4.3533e-10
3.91163e-10
2.25397e-10
1.50095e-10
1.03498e-10
6.29468e-11
3.28659e-11
1.46215e-11
5.67623e-12
2.05761e-12
8.29561e-13
4.82098e-13
4.83784e-13
6.50429e-13
8.92406e-13
1.36833e-12
2.16689e-12
1.78669e-07
9.24822e-08
2.10609e-10
2.70415e-10
4.7607e-10
4.83055e-10
5.30527e-10
6.21164e-10
2.85809e-10
1.98835e-10
1.49623e-10
9.71688e-11
5.40817e-11
2.57564e-11
1.01441e-11
3.45346e-12
1.04448e-12
3.22461e-13
1.43938e-13
1.59255e-13
2.52648e-13
4.40044e-13
7.33468e-13
1.78552e-07
1.02927e-07
2.10408e-10
2.15982e-10
4.14738e-10
4.07533e-10
4.07474e-10
8.13119e-10
3.04102e-10
2.54643e-10
1.98534e-10
1.35765e-10
8.10462e-11
4.07345e-11
1.705e-11
6.01342e-12
1.87688e-12
4.88837e-13
1.19338e-13
4.8767e-14
6.30401e-14
1.25279e-13
2.33235e-13
1.82094e-07
1.90654e-07
1.8318e-08
2.1015e-10
1.64675e-09
6.60541e-09
1.56553e-08
4.6338e-10
2.96479e-10
2.96401e-10
2.45655e-10
1.73618e-10
1.07465e-10
5.68548e-11
2.51601e-11
9.75025e-12
3.23013e-12
8.75087e-13
2.10396e-13
3.54415e-14
1.90954e-14
3.21122e-14
6.6732e-14
1.06633e-07
2.03279e-07
9.78571e-08
2.11263e-10
2.79853e-08
1.51263e-07
1.09452e-07
4.63003e-10
3.31433e-10
3.21497e-10
2.90762e-10
2.10627e-10
1.35079e-10
7.27925e-11
3.49471e-11
1.42733e-11
4.86469e-12
1.4221e-12
3.37051e-13
6.72734e-14
9.06875e-15
7.60728e-15
1.65609e-14
7.88487e-08
2.03851e-07
8.71977e-08
2.1015e-10
4.00756e-08
2.32263e-07
1.81177e-07
4.8269e-08
5.06341e-10
3.35527e-10
3.10818e-10
2.32037e-10
1.52624e-10
8.22754e-11
4.07274e-11
1.8005e-11
6.87752e-12
2.08311e-12
5.36777e-13
1.10094e-13
1.33888e-14
2.50452e-15
3.8998e-15
2.63515e-08
8.7285e-08
4.22905e-08
1.79694e-09
5.3206e-09
2.93425e-07
1.16381e-06
2.85186e-07
2.02607e-09
3.45891e-10
3.06807e-10
2.35083e-10
1.54278e-10
8.42576e-11
4.23548e-11
1.94647e-11
7.98637e-12
2.7155e-12
7.35577e-13
1.6028e-13
3.04186e-14
1.73043e-15
8.38963e-16
1.1857e-08
3.338e-08
1.63769e-08
8.87124e-10
3.98691e-09
5.1045e-07
1.44843e-06
9.41149e-07
7.67661e-09
3.82629e-10
2.80574e-10
2.21668e-10
1.45825e-10
7.84447e-11
3.87044e-11
1.81654e-11
7.88055e-12
2.91523e-12
8.59611e-13
1.99753e-13
3.90172e-14
2.32395e-15
2.4465e-16
2.37602e-09
1.11935e-08
2.12785e-09
1.24995e-09
3.98073e-10
6.81136e-07
1.44794e-06
9.00746e-07
3.0601e-08
5.72849e-10
2.31633e-10
1.90111e-10
1.24932e-10
6.58184e-11
3.1346e-11
1.43923e-11
6.42083e-12
2.55927e-12
8.38235e-13
2.11611e-13
4.17728e-14
4.24783e-15
1.46722e-16
8.21639e-10
8.54509e-10
8.52451e-10
1.63274e-09
3.95781e-10
5.40469e-07
1.40951e-06
1.75735e-07
2.19596e-08
8.90124e-10
1.71005e-10
1.44097e-10
9.54652e-11
4.89668e-11
2.19345e-11
9.52714e-12
4.20254e-12
1.74459e-12
6.31251e-13
1.75178e-13
3.72263e-14
4.38463e-15
1.82328e-16
8.16443e-10
5.44862e-09
1.74354e-09
2.16205e-09
4.30401e-10
1.70711e-08
1.54402e-07
5.84719e-08
6.89325e-09
4.73286e-10
1.10533e-10
9.47369e-11
6.25766e-11
3.14392e-11
1.3102e-11
5.16374e-12
2.09838e-12
8.79074e-13
3.35909e-13
1.07054e-13
2.39669e-14
3.73714e-15
2.07349e-16
3.24197e-07
5.94287e-08
3.01078e-09
2.16331e-09
3.69022e-09
6.43095e-10
8.4074e-11
2.98696e-11
3.90802e-10
1.60117e-10
5.85156e-11
5.12851e-11
3.40677e-11
1.6882e-11
6.44684e-12
2.19638e-12
7.73466e-13
2.89924e-13
1.1793e-13
4.39493e-14
1.23275e-14
1.70357e-15
1.75391e-16
4.98424e-07
2.84614e-07
3.11241e-08
7.90252e-09
6.10886e-09
2.26637e-09
4.05096e-10
4.88529e-11
1.98784e-10
7.0018e-11
2.3749e-11
2.15675e-11
1.46038e-11
7.17876e-12
2.57093e-12
7.36081e-13
2.01045e-13
6.12047e-14
2.41251e-14
1.16618e-14
3.57258e-15
7.4339e-16
1.17396e-16
4.98305e-07
1.93387e-07
2.79414e-08
4.16176e-09
3.0307e-09
1.14432e-09
2.24499e-10
3.16473e-11
4.68818e-11
1.34074e-11
6.69725e-12
6.15148e-12
4.41093e-12
2.16308e-12
7.28938e-13
1.7378e-13
3.41281e-14
6.93463e-15
2.75437e-15
1.92858e-15
7.6685e-16
2.45581e-16
6.14927e-17
1.22341e-07
3.13698e-08
3.61882e-09
2.8451e-10
2.56678e-11
3.16105e-12
3.58481e-13
4.00179e-12
6.11927e-13
1.63522e-13
8.59234e-13
9.17045e-13
6.95275e-13
3.45174e-13
1.06814e-13
2.14102e-14
2.96855e-15
3.86804e-16
1.62332e-16
2.03277e-16
1.54221e-16
6.89865e-17
2.54641e-17
0.696352
0.736395
0.751417
0.778069
0.990109
0.99
0.989964
0.993167
0.162926
0.227834
0.734208
0.93134
0.0182412
0.0131704
0.0137093
0.00534045
0.00217576
0.000332352
0.000526315
-4.62037e-16
8.55783e-05
5.40807e-09
9.98952e-13
7.8391e-25
0.00407976
0.000951892
0.00026823
0.00016447
0.0204361
0.0192622
0.0179705
0.0111549
0.020449
0.0204487
0.020449
0.0204484
0.0174733
0.020449
0.0204484
0.020449
0.000533438
0.000288626
0.000265769
0.00150695
3.58814e-06
-4.79719e-09
-1.25804e-08
-1.9461e-08
4.81363e-06
4.16699e-06
4.4585e-06
3.83244e-06
4.01347e-05
4.12816e-05
2.78523e-05
1.58614e-05
4.1281e-05
4.12837e-05
3.97497e-05
5.04342e-06
2.74781e-05
2.64023e-05
9.71937e-06
8.21733e-07
8.8399e-07
8.03673e-07
1.11525e-06
9.17473e-07
6.25947e-10
6.1947e-10
1.3323e-09
1.20513e-07
2.192e-09
7.44913e-09
1.19897e-08
3.33554e-08
1.46439e-09
2.4683e-09
3.29238e-09
5.42365e-09
6.98033e-10
9.19303e-10
1.0438e-09
1.24945e-09
3.2993e-10
3.80833e-10
4.71775e-10
5.28996e-10
1.71525e-10
2.06736e-10
2.40066e-10
2.72411e-10
8.62491e-11
1.01018e-10
1.25956e-10
1.43885e-10
4.31613e-11
5.39966e-11
6.42083e-11
7.51908e-11
1.98433e-11
2.41458e-11
3.15712e-11
3.76196e-11
8.40313e-12
1.10352e-11
1.3783e-11
1.66407e-11
3.29315e-12
4.23958e-12
5.6569e-12
6.99029e-12
1.21097e-12
1.60958e-12
2.15132e-12
2.6513e-12
4.02862e-13
5.56216e-13
7.37378e-13
9.66648e-13
1.2473e-13
1.70795e-13
2.56924e-13
3.14818e-13
3.43499e-14
5.55591e-14
7.34878e-14
1.0488e-13
9.05124e-15
1.31358e-14
2.25556e-14
2.86331e-14
2.13345e-15
3.57228e-15
5.16508e-15
8.37769e-15
4.00267e-16
6.52428e-16
1.29967e-15
1.69079e-15
8.18947e-17
1.52013e-16
2.45933e-16
4.67913e-16
1.52181e-17
2.3476e-17
5.83586e-17
8.69493e-17
3.81472e-18
4.88784e-18
8.37115e-18
1.95032e-17
1.78758e-18
7.34886e-19
1.57746e-18
2.2777e-18
2.02721e-18
2.37683e-19
1.66581e-19
4.67802e-19
2.10639e-18
1.59782e-19
3.69761e-20
6.82611e-20
1.86246e-18
1.34328e-19
1.16311e-20
8.84212e-21
0.946999
0.98481
0.989358
0.904615
0.725587
0.893605
0.961111
0.961052
0.899988
0.703592
0.586317
0.581228
0.638506
0.477861
0.298986
0.428661
0.711263
0.778319
0.803525
0.994796
0.99634
0.996346
0.992617
0.904363
0.8656
0.941428
0.960692
0.929358
0.852759
0.763057
0.43469
0.181482
0.140192
0.135552
0.125377
0.246146
0.351456
0.400353
0.935815
0.962191
0.99637
0.995405
0.987086
0.96845
0.956102
0.885694
0.658489
0.512601
0.540043
0.528185
0.254699
0.145832
0.156601
0.0558634
0.032487
0.0265467
0.00209014
0.0651961
0.621634
0.92666
0.948261
0.971759
0.970979
0.87589
0.400439
0.139681
0.133936
0.449626
0.536204
0.506469
0.491724
0.319737
0.0809159
0.0209364
0.0072937
0.000653748
-1.19771e-08
0.00624933
0.119103
0.379715
0.591511
0.622431
0.331191
0.0352475
5.47794e-07
5.65436e-07
0.0209621
0.285685
0.428538
0.195105
0.0441106
0.0471303
0.0221699
0.00477905
0.00062493
9.59169e-06
-1.92924e-08
-1.29434e-08
5.9931e-05
0.00412326
0.00632284
0.0126044
1.03443e-07
5.18522e-07
6.04611e-06
0.00236341
0.00804143
0.00975833
0.000613947
0.000833299
0.000834101
0.000819613
0.00394138
0.000429323
9.61747e-06
2.71535e-05
2.42907e-05
3.19297e-05
3.24407e-06
-8.82483e-08
-2.56244e-07
-3.01426e-14
4.85401e-10
1.54902e-05
4.78532e-05
3.06032e-05
4.04263e-05
0.000712741
0.00206918
0.00338003
0.0011402
0.00399118
0.000449368
0.00156589
2.4787e-05
2.45356e-05
0.000350925
0.000346786
0.000220416
0.000113384
2.91054e-16
1.2656e-10
5.56116e-08
3.73334e-08
3.04631e-05
3.69144e-05
0.00128569
0.00597388
0.00597158
0.00234945
0.00365338
0.000371009
0.0187069
0.0123573
0.00226983
0.000435305
0.000219863
0.00022008
0.000588092
0.0012708
0.00116112
0.00116614
0.00103177
3.62088e-05
3.58191e-05
0.00149519
0.0059794
0.00376565
5.0555e-08
5.05532e-08
0.000114292
0.012758
0.0106617
0.0118255
0.0118587
0.0117055
0.00158291
0.000599972
0.00376711
0.0046883
0.00402315
0.000613362
1.24084e-05
0.000175988
0.00328417
0.00485086
5.05553e-08
5.05532e-08
5.0555e-08
5.05532e-08
0.000790206
0.00116879
0.00173711
0.00246253
0.00479023
0.00920441
0.00920957
0.00648853
0.00560729
0.00163015
0.000730177
0.00291879
0.0041221
0.0029683
2.23693e-07
3.32925e-07
6.7023e-07
1.93794e-07
5.05551e-08
-5.07342e-22
2.1098e-22
9.12998e-07
1.0998e-06
8.0212e-07
0.0011429
0.00687867
0.00610883
0.0040096
0.00253777
0.00486985
0.0042795
8.84272e-06
3.7145e-07
3.70469e-07
9.05071e-07
8.68115e-07
3.75795e-07
5.07893e-08
2.07357e-07
1.36658e-08
4.027e-07
3.77151e-07
3.09858e-07
3.07069e-07
0.000634977
0.00298869
0.000677319
0.00254609
0.00487183
0.00300195
2.06802e-05
6.14052e-07
1.7264e-07
1.56343e-07
1.8024e-08
1.30738e-07
5.58558e-08
2.43624e-07
1.95862e-07
3.88333e-07
3.24115e-07
3.07069e-07
3.07204e-07
5.04341e-07
6.49313e-07
3.77289e-07
0.000710235
0.0032565
0.00236271
0.000908114
1.83324e-08
1.77119e-08
1.8024e-08
1.74055e-08
1.73269e-08
6.54165e-08
6.4052e-07
2.74288e-07
2.59501e-07
2.61916e-07
1.74195e-05
2.81618e-05
3.13014e-06
8.45765e-07
3.74138e-07
3.79574e-07
9.43358e-05
3.74907e-07
3.74381e-07
2.68562e-06
6.97997e-05
7.8802e-05
1.40069e-05
1.66835e-08
1.03844e-07
5.45739e-07
5.79598e-07
1.92415e-06
1.53774e-05
2.91131e-05
2.91127e-05
2.90949e-05
3.37231e-06
3.70819e-07
3.71779e-07
4.44778e-07
3.74383e-07
3.74079e-07
3.74113e-05
0.000173378
0.000173284
7.21594e-05
1.68169e-08
1.20528e-07
7.74794e-07
1.82559e-06
5.57916e-06
6.72957e-06
7.80604e-06
1.50108e-05
1.44568e-05
2.58434e-05
1.6935e-05
4.45026e-06
1.94732e-06
3.91229e-07
1.18529e-06
0.00010578
0.000172021
0.000173556
8.35915e-05
5.2975e-07
2.58149e-07
2.77036e-07
5.71823e-07
9.87079e-07
1.29903e-07
1.21514e-09
6.95995e-08
3.9325e-06
2.62245e-05
2.62822e-05
2.63522e-05
1.40336e-05
2.55318e-06
7.26957e-06
2.93365e-05
0.000152549
0.00014532
2.49868e-05
1.32781e-06
6.12614e-07
5.5737e-08
2.85917e-08
1.21806e-09
1.21575e-09
1.2117e-09
1.20766e-09
1.20603e-09
4.95362e-06
1.51719e-05
1.4432e-05
7.85062e-06
6.76441e-06
6.00355e-06
9.15275e-08
1.49519e-06
1.26606e-05
1.94442e-05
1.64012e-05
5.22337e-06
7.34088e-09
3.32189e-09
1.7427e-09
2.3594e-09
2.82839e-09
3.86956e-09
2.76296e-09
9.84705e-09
1.00287e-07
3.57178e-08
2.08624e-07
7.57463e-07
2.51818e-07
6.49184e-08
2.78023e-08
1.53996e-05
2.35181e-05
2.35207e-05
7.6535e-06
1.48477e-09
1.29263e-09
1.53734e-09
2.28322e-09
3.73393e-09
7.52369e-09
1.07626e-08
1.20762e-08
2.03858e-08
2.32214e-08
1.78754e-08
2.09223e-08
8.72878e-09
1.77713e-07
2.86566e-08
1.05486e-05
2.35141e-05
1.7741e-05
7.47227e-06
5.99547e-10
6.79604e-10
8.20195e-10
1.43343e-09
2.9341e-09
6.56766e-09
1.08175e-08
1.45937e-08
2.23089e-08
2.43415e-08
1.72955e-08
8.53952e-09
4.47969e-09
4.41353e-09
2.00734e-06
1.81493e-05
1.84938e-05
1.62146e-05
4.56006e-06
3.10408e-10
3.97129e-10
4.79518e-10
7.39535e-10
1.46698e-09
2.97597e-09
5.12637e-09
7.45457e-09
1.19443e-08
1.50469e-08
1.50145e-08
1.77864e-08
5.30435e-09
7.0692e-08
5.51805e-06
1.87206e-05
1.87384e-05
2.71144e-06
4.191e-06
1.67338e-10
2.32528e-10
3.24333e-10
4.42556e-10
7.29737e-10
1.20379e-09
2.05231e-09
3.4778e-09
6.38814e-09
9.14464e-09
1.60216e-08
2.27069e-08
9.50553e-08
4.00894e-07
2.23953e-06
8.77442e-06
6.76742e-06
8.21455e-07
6.20222e-06
8.9192e-11
1.32257e-10
1.98206e-10
2.94373e-10
4.34155e-10
7.18619e-10
1.20176e-09
2.23346e-09
4.20234e-09
6.85066e-09
1.53122e-08
4.05873e-08
1.90097e-07
2.93826e-07
2.47103e-07
4.11671e-07
3.72083e-07
6.26113e-07
1.26506e-05
4.55399e-11
6.9525e-11
1.08929e-10
1.70318e-10
2.67114e-10
4.29812e-10
7.65789e-10
1.37945e-09
2.55264e-09
4.55948e-09
1.00577e-08
2.93726e-08
5.17723e-08
1.01707e-07
3.47035e-08
1.38306e-07
1.69239e-07
4.18871e-07
1.69838e-05
2.06016e-11
3.28993e-11
5.29045e-11
8.62518e-11
1.40938e-10
2.3423e-10
4.23115e-10
7.73781e-10
1.4252e-09
2.49139e-09
4.49711e-09
8.90953e-09
8.10357e-09
1.31955e-08
2.54031e-08
2.27021e-08
5.9032e-09
1.66269e-07
1.69221e-05
8.64589e-12
1.41827e-11
2.32687e-11
3.8936e-11
6.53331e-11
1.10151e-10
1.99573e-10
3.78388e-10
7.11113e-10
1.24778e-09
1.99851e-09
3.08346e-09
4.37814e-09
5.81828e-09
1.98977e-08
8.82569e-09
5.89824e-09
5.9036e-09
1.39602e-05
3.35774e-12
5.585e-12
9.32867e-12
1.57037e-11
2.66464e-11
4.63012e-11
8.63224e-11
1.71393e-10
3.19437e-10
5.96603e-10
9.55167e-10
1.38507e-09
2.18428e-09
2.00848e-09
6.21162e-09
6.9842e-09
5.88496e-09
6.48341e-08
2.0645e-06
1.22214e-12
2.03543e-12
3.43825e-12
5.78332e-12
9.91834e-12
1.74934e-11
3.26012e-11
6.5622e-11
1.37707e-10
2.66627e-10
4.86417e-10
6.47635e-10
7.26968e-10
3.82358e-10
2.86467e-10
2.5666e-09
5.87366e-09
5.80187e-08
3.79002e-08
4.1442e-13
7.02309e-13
1.1787e-12
1.948e-12
3.29742e-12
5.72002e-12
1.0759e-11
2.16687e-11
4.62626e-11
9.62087e-11
1.53757e-10
2.60984e-10
2.55835e-10
9.84695e-11
8.2406e-11
6.17703e-10
2.46248e-09
9.70164e-09
1.4222e-09
1.33476e-13
2.29119e-13
3.84096e-13
6.12359e-13
9.95869e-13
1.65076e-12
2.89341e-12
5.33363e-12
9.21749e-12
1.00275e-11
1.54512e-11
4.12897e-11
9.21248e-11
5.08052e-11
4.24381e-11
1.85163e-10
7.26363e-10
6.70689e-10
1.40588e-09
4.00602e-14
7.05146e-14
1.14032e-13
1.80078e-13
2.79014e-13
4.44288e-13
7.16255e-13
1.20354e-12
1.87164e-12
2.01022e-12
8.83294e-13
3.31122e-12
1.56707e-11
2.89717e-11
2.19712e-11
4.59605e-11
2.07381e-10
3.77072e-10
9.74427e-10
1.08854e-14
2.01284e-14
3.23802e-14
4.99323e-14
7.51919e-14
1.11847e-13
1.69177e-13
2.64933e-13
3.9076e-13
4.25068e-13
2.41011e-13
3.21992e-13
2.09807e-12
1.05883e-11
1.30312e-11
9.95979e-12
3.60908e-11
1.21891e-10
2.85232e-10
2.8986e-15
5.31324e-15
8.79425e-15
1.34122e-14
1.95644e-14
2.7505e-14
4.01181e-14
5.98399e-14
8.47617e-14
9.9899e-14
7.12462e-14
8.70844e-14
3.52889e-13
2.63339e-12
4.98354e-12
5.55723e-12
4.29827e-12
1.5157e-11
6.14306e-11
6.7384e-16
1.33878e-15
2.26273e-15
3.43134e-15
4.88368e-15
6.86511e-15
9.70143e-15
1.43805e-14
2.07451e-14
2.6246e-14
2.6052e-14
3.26472e-14
8.37734e-14
3.46652e-13
1.15516e-12
2.85105e-12
2.09908e-12
3.89162e-12
1.51815e-11
1.52149e-16
3.08623e-16
5.38932e-16
8.29613e-16
1.19609e-15
1.69158e-15
2.47907e-15
3.78371e-15
6.0248e-15
9.24228e-15
1.32609e-14
2.12154e-14
4.44145e-14
1.24871e-13
3.6691e-13
8.29979e-13
1.15835e-12
1.19517e-12
1.05638e-12
2.96003e-17
6.62719e-17
1.1969e-16
1.89657e-16
2.83619e-16
4.14432e-16
6.43534e-16
1.11162e-15
2.06938e-15
3.968e-15
7.60597e-15
1.4864e-14
3.07552e-14
7.48579e-14
2.05267e-13
4.86772e-13
6.17404e-13
6.38604e-13
5.39611e-13
5.78486e-18
1.26179e-17
2.36165e-17
4.07181e-17
6.28711e-17
1.00804e-16
1.72541e-16
3.50213e-16
8.13343e-16
1.92124e-15
4.58536e-15
1.03715e-14
2.2435e-14
4.9698e-14
1.19877e-13
2.94294e-13
4.69953e-13
4.82963e-13
3.82644e-13
9.30164e-19
2.23012e-18
4.40776e-18
7.78558e-18
1.30522e-17
2.20028e-17
4.33909e-17
1.0529e-16
2.99338e-16
8.57522e-16
2.3609e-15
6.00767e-15
1.41628e-14
3.17012e-14
7.42541e-14
1.70616e-13
3.2781e-13
3.93001e-13
2.57214e-13
1.31798e-19
3.33521e-19
6.91412e-19
1.29575e-18
2.40975e-18
4.60413e-18
1.05413e-17
3.08168e-17
1.03749e-16
3.47066e-16
1.08109e-15
3.06292e-15
7.86179e-15
1.84462e-14
4.14988e-14
9.55618e-14
2.02423e-13
2.73769e-13
1.72135e-13
1.70251e-20
4.56607e-20
1.01345e-19
2.06425e-19
4.18494e-19
9.12905e-19
2.36828e-18
8.17155e-18
3.219e-17
1.23186e-16
4.34474e-16
1.36322e-15
3.83329e-15
9.59793e-15
2.17629e-14
4.7297e-14
9.59482e-14
1.31532e-13
7.6796e-14
)
;

boundaryField
{
    leftWall
    {
        type            zeroGradient;
    }
    rightWall
    {
        type            zeroGradient;
    }
    lowerWall
    {
        type            zeroGradient;
    }
    atmosphere
    {
        type            inletOutlet;
        inletValue      uniform 0;
        value           nonuniform List<scalar> 
46
(
1.22341e-07
3.13698e-08
3.61882e-09
2.8451e-10
0
0
0
0
0
0
0
0
0
0
0
0
0
0
0
0
1.54221e-16
6.89865e-17
2.54641e-17
1.86246e-18
1.34328e-19
1.16311e-20
8.84212e-21
1.70251e-20
4.56607e-20
1.01345e-19
2.06425e-19
4.18494e-19
9.12905e-19
2.36828e-18
8.17155e-18
3.219e-17
1.23186e-16
4.34474e-16
1.36322e-15
3.83329e-15
9.59793e-15
2.17629e-14
4.7297e-14
9.59482e-14
1.31532e-13
7.6796e-14
)
;
    }
    defaultFaces
    {
        type            empty;
    }
}


// ************************************************************************* //
