/*--------------------------------*- C++ -*----------------------------------*\
| =========                 |                                                 |
| \\      /  F ield         | OpenFOAM: The Open Source CFD Toolbox           |
|  \\    /   O peration     | Version:  2312                                  |
|   \\  /    A nd           | Website:  www.openfoam.com                      |
|    \\/     M anipulation  |                                                 |
\*---------------------------------------------------------------------------*/
FoamFile
{
    version     2.0;
    format      ascii;
    arch        "LSB;label=32;scalar=64";
    class       volScalarField;
    location    "3.05";
    object      p;
}
// * * * * * * * * * * * * * * * * * * * * * * * * * * * * * * * * * * * * * //

dimensions      [1 -1 -2 0 0 0 0];

internalField   nonuniform List<scalar> 
2268
(
5980.05
5960.27
5921.25
5861.21
5780.65
5681.24
5567.15
5445.35
5323.1
5208.09
5105.57
5017.96
4944.65
4882.62
4828.59
4779.96
4734.52
4690.86
4649.43
4610.14
4575.09
4547.58
4529.55
5187.6
5166.88
5128.15
5068.54
4988.09
4888.09
4772.6
4649.06
4524.93
4408.49
4305.18
4217.59
4144.96
4083.8
4030.56
3982.59
3937.6
3894.13
3852.61
3812.9
3776.48
3747.66
3729.46
4398.87
4376.22
4337.72
4278.96
4198.89
4097.86
3979.48
3852.63
3724.69
3605.43
3500.6
3413.1
3341.96
3282.58
3230.88
3184.26
3140.16
3097.07
3055.63
3015.09
2976.91
2945.72
2926.19
3610.7
3586.95
3549.61
3492.5
3413.24
3310.79
3187.66
3056.11
2922.13
2798.55
2691.31
2603.96
2535.32
2478.81
2429.49
2384.95
2342.26
2299.77
2258.49
2217.01
2176.9
2145.44
2125.75
2821.95
2798.41
2763.67
2709.41
2631.66
2527.75
2403.7
2259.55
2116.52
1986.79
1875.98
1789.04
1724.51
1672.43
1626.4
1585.14
1545.74
1508.57
1471.43
1431.82
1392.45
1359.87
1337.97
2031.09
2009.93
1979.01
1929.3
1853.98
1747.22
1615.72
1463.03
1318.95
1204.86
1120.13
1062.74
1026.47
998.138
976.378
955.413
936.311
921.474
908.435
895.623
885.75
882.522
880.814
1249.59
1234.45
1210.99
1172.4
1112.72
1032.6
941.639
848.109
781.935
740.602
718.209
707.768
703.093
700.169
700.584
698.668
700.814
704.818
710.886
720.159
734.275
751.588
750.261
720.331
711.513
697.155
676.194
648.942
619.604
603.821
600.111
608.712
616.012
623.94
631.427
636.546
640.518
643.84
640.933
641.376
645.313
651.36
660.476
674.126
689.034
680.411
2904.09
2921.45
2963.38
2971.12
2963.08
2961.78
2965.43
2972.45
2973.99
2967.27
2919.98
2832.37
2722.15
2616.36
2536.67
2490.56
2475.85
2498.41
2514.46
2118.27
2154.83
2209.29
2212.98
2198.36
2198.18
2202.5
2211.07
2216.37
2215.03
2168.29
2080.43
1977.17
1885.18
1815.81
1781.39
1776.98
1796.42
1811.4
1444.66
1476.81
1542.41
1555.46
1537.88
1524.58
1514.94
1521.1
1549.97
1575.08
1554.1
1482.03
1405.83
1353.93
1320.45
1304.65
1302.42
1311.55
1318.48
1130.36
1115.86
1136.68
1152.86
1154.2
1148.93
1133.88
1131.19
1151.95
1175.91
1182.21
1165.08
1145.71
1134.65
1128.66
1122.04
1114.86
1113.35
1118.28
1032.21
1017.19
1006.29
1009.26
1021.95
1032.43
1028.63
1023.06
1018.27
1016.54
1022.29
1041.35
1059.16
1065.37
1064.3
1057.1
1048.63
1049.14
1059.76
971.833
964.822
960.098
963.859
968.2
972.853
968.158
965.175
967.913
971.479
973.328
984.87
992.307
995.74
995.064
989.535
982.946
986.076
1001.6
905.267
902.432
904.643
915.897
911.813
912.359
915.988
920.222
925.848
928.71
924.798
922.752
921.014
919.876
918.797
919.262
919.365
926.073
943.099
812.12
811.727
839.078
860.067
855.239
852.362
859.476
867.271
874.896
877.737
872.677
859.159
850.955
848.767
847.236
852.609
861.71
870.431
884.7
512.657
508.414
501.769
494.509
489.948
490.77
496.162
505.414
513.748
521.402
529.147
536.465
542.152
546.479
551.303
550.401
550.413
553.544
559.014
566.632
576.077
581.731
581.698
393.115
389.9
384.735
378.367
373.254
370.264
372.508
378.574
386.083
393.472
400.995
408.206
414.37
419.024
422.312
425.044
425.613
429.144
436.024
443.748
453.931
463.373
466.824
274.06
270.934
266.041
259.461
253.256
249.56
250.074
255.168
262.278
268.865
276.37
284.555
292.041
298.749
304.354
312.885
320.881
329.832
339.574
349.28
359.3
368.489
372.373
158.014
155.676
153.225
150.486
149.174
150.581
153.024
156.613
161.29
166.139
173.718
182.452
192.202
203.058
214.744
227.963
241.719
255.304
267.811
279.494
290.007
297.407
298.08
70.3234
70.2697
70.3571
71.451
73.4737
76.11
80.1142
83.6979
86.6875
91.1615
98.3657
107.346
118.637
131.703
145.414
159.569
173.9
187.608
200.512
212.742
223.895
232.126
234.942
20.3789
20.8094
21.5015
21.9841
23.198
24.1723
27.5329
27.1801
27.3222
31.2824
36.094
42.3329
51.7566
63.6125
76.7852
91.0176
105.694
120.032
133.704
146.742
158.623
167.964
173.453
0.601187
0.554194
0.455496
0.500587
0.939722
1.48344
1.83746
2.25443
1.84555
1.87659
2.46449
4.26481
7.39752
12.4483
19.2111
28.7248
40.1502
52.9488
66.8905
81.2785
94.6762
105.398
112.58
-0.822366
-0.88566
-1.02134
-1.07698
-1.08818
-1.08695
-1.08341
-1.00013
-0.926174
-0.968361
-0.978006
-0.93394
-0.890653
-0.833568
-0.438897
1.45031
4.65784
9.14127
15.4456
24.6831
35.9686
46.1053
53.2265
-1.21455
-1.22146
-1.23936
-1.2608
-1.27547
-1.27843
-1.26744
-1.26291
-1.23904
-1.21924
-1.18852
-1.16089
-1.14696
-1.1755
-1.2252
-1.18538
-1.11488
-0.977802
-0.717096
0.338001
3.82763
8.5479
12.1469
-1.36029
-1.36833
-1.38499
-1.40211
-1.41593
-1.42219
-1.42109
-1.41655
-1.40339
-1.38527
-1.36288
-1.34427
-1.33972
-1.36249
-1.3933
-1.39532
-1.39173
-1.39095
-1.40873
-1.49136
-1.49124
-1.41412
-1.02791
-1.51009
-1.51645
-1.52966
-1.54497
-1.55933
-1.5693
-1.57238
-1.56845
-1.55819
-1.54249
-1.52455
-1.50976
-1.50409
-1.51442
-1.53283
-1.54596
-1.55421
-1.56595
-1.59012
-1.63478
-1.67477
-1.74595
-1.82045
-1.66128
-1.66727
-1.67813
-1.69113
-1.7037
-1.71422
-1.7194
-1.71784
-1.71029
-1.69787
-1.6842
-1.67235
-1.66691
-1.67281
-1.68829
-1.70678
-1.72496
-1.74349
-1.76594
-1.80089
-1.84366
-1.8923
-1.93112
-1.80917
-1.81485
-1.82393
-1.83487
-1.84563
-1.85575
-1.86168
-1.86198
-1.85664
-1.84779
-1.83825
-1.83032
-1.82636
-1.8311
-1.84524
-1.86656
-1.89074
-1.9132
-1.93482
-1.95857
-1.98309
-2.00442
-2.02064
-1.95178
-1.95717
-1.96468
-1.974
-1.98319
-1.99374
-1.99917
-2.00012
-1.99592
-1.98907
-1.98385
-1.98111
-1.97979
-1.98548
-1.9992
-2.02131
-2.04714
-2.06913
-2.08769
-2.10278
-2.1159
-2.12665
-2.13404
-2.08911
-2.09394
-2.10034
-2.10846
-2.11715
-2.12571
-2.13126
-2.13263
-2.13051
-2.12718
-2.12612
-2.12695
-2.13154
-2.1389
-2.15015
-2.16659
-2.18688
-2.2105
-2.22909
-2.24276
-2.25352
-2.26124
-2.26631
-2.22241
-2.22674
-2.23224
-2.23936
-2.247
-2.25419
-2.25956
-2.26275
-2.26487
-2.26712
-2.26997
-2.27298
-2.27756
-2.28436
-2.29465
-2.30905
-2.3261
-2.34421
-2.36236
-2.37812
-2.38937
-2.39677
-2.40115
-2.35418
-2.35813
-2.36303
-2.36938
-2.37625
-2.38264
-2.38814
-2.39299
-2.39801
-2.40296
-2.4066
-2.40959
-2.41508
-2.42324
-2.43428
-2.44695
-2.46084
-2.47535
-2.48959
-2.50313
-2.51462
-2.52365
-2.52953
-2.48628
-2.48997
-2.49452
-2.5003
-2.50644
-2.5125
-2.51823
-2.52371
-2.52912
-2.53421
-2.53883
-2.5437
-2.54999
-2.55815
-2.56811
-2.57894
-2.59017
-2.60198
-2.61386
-2.62525
-2.63563
-2.64457
-2.65154
-2.6193
-2.62277
-2.62709
-2.63249
-2.63824
-2.64402
-2.64968
-2.65521
-2.66065
-2.66595
-2.67116
-2.67675
-2.68326
-2.69093
-2.69967
-2.70905
-2.71886
-2.729
-2.73913
-2.74887
-2.75788
-2.76591
-2.7729
-2.7531
-2.75634
-2.76042
-2.7655
-2.77091
-2.7764
-2.78185
-2.78723
-2.79257
-2.7979
-2.80333
-2.80911
-2.81551
-2.82268
-2.83054
-2.83889
-2.84758
-2.85647
-2.86532
-2.87386
-2.8819
-2.88928
-2.89604
-2.88734
-2.89035
-2.89416
-2.89891
-2.90398
-2.90915
-2.91432
-2.91947
-2.92464
-2.92986
-2.93525
-2.94094
-2.9471
-2.95378
-2.96095
-2.96849
-2.97629
-2.98424
-2.99214
-2.99981
-3.00721
-3.0142
-3.02084
-3.02176
-3.02453
-3.02807
-3.03247
-3.03719
-3.04203
-3.0469
-3.05178
-3.0567
-3.06172
-3.06692
-3.07239
-3.07822
-3.08444
-3.09102
-3.09789
-3.10498
-3.11219
-3.11939
-3.12647
-3.13335
-3.14004
-3.14659
-3.15621
-3.15874
-3.16201
-3.16608
-3.17045
-3.17496
-3.17949
-3.18406
-3.18869
-3.19343
-3.19835
-3.20352
-3.20899
-3.21476
-3.22082
-3.22713
-3.23362
-3.24022
-3.24686
-3.25348
-3.25995
-3.26636
-3.27279
-3.29061
-3.29293
-3.29594
-3.29968
-3.30372
-3.30788
-3.31207
-3.3163
-3.32059
-3.325
-3.32959
-3.33441
-3.33948
-3.34482
-3.35041
-3.35621
-3.36218
-3.36828
-3.37443
-3.38061
-3.38675
-3.39291
-3.39916
-3.42495
-3.42707
-3.42983
-3.43327
-3.43697
-3.44078
-3.44462
-3.44848
-3.4524
-3.45644
-3.46065
-3.46509
-3.46976
-3.47468
-3.47982
-3.48517
-3.49068
-3.49632
-3.50205
-3.50784
-3.51366
-3.51955
-3.52556
-3.55927
-3.5612
-3.5637
-3.56684
-3.57021
-3.57367
-3.57713
-3.58059
-3.58411
-3.58774
-3.59156
-3.59559
-3.59986
-3.60437
-3.6091
-3.61402
-3.61912
-3.62435
-3.62968
-3.63511
-3.64061
-3.6462
-3.65193
-3.69347
-3.69525
-3.69754
-3.70039
-3.70344
-3.70654
-3.7096
-3.71264
-3.71572
-3.71893
-3.72233
-3.72595
-3.72982
-3.73392
-3.73825
-3.74278
-3.74748
-3.75233
-3.7573
-3.76237
-3.76754
-3.77282
-3.77824
-3.82742
-3.82911
-3.83129
-3.83389
-3.83665
-3.83938
-3.84202
-3.84461
-3.84723
-3.84999
-3.85296
-3.85617
-3.85964
-3.86336
-3.86731
-3.87146
-3.87579
-3.88027
-3.88488
-3.88961
-3.89445
-3.8994
-3.90448
-3.96126
-3.96285
-3.96487
-3.96732
-3.96978
-3.97214
-3.97435
-3.97647
-3.97862
-3.98092
-3.98346
-3.98626
-3.98934
-3.99268
-3.99626
-4.00005
-4.00403
-4.00816
-4.01242
-4.01681
-4.0213
-4.02591
-4.03064
-4.09504
-4.09651
-4.09837
-4.1006
-4.10277
-4.10476
-4.10652
-4.10816
-4.10984
-4.1117
-4.11381
-4.11622
-4.11893
-4.12191
-4.12514
-4.12858
-4.1322
-4.13599
-4.13991
-4.14395
-4.1481
-4.15236
-4.15674
-4.22863
-4.22996
-4.23164
-4.23367
-4.23555
-4.23717
-4.23846
-4.23963
-4.24085
-4.24229
-4.24402
-4.24606
-4.24841
-4.25105
-4.25393
-4.25703
-4.26032
-4.26376
-4.26734
-4.27104
-4.27485
-4.27875
-4.28276
-4.36182
-4.36302
-4.36454
-4.36639
-4.36797
-4.36922
-4.37007
-4.37079
-4.3716
-4.37266
-4.37404
-4.37576
-4.37779
-4.3801
-4.38266
-4.38543
-4.38837
-4.39148
-4.39471
-4.39807
-4.40153
-4.40508
-4.40873
-4.49441
-4.49549
-4.49686
-4.49857
-4.49992
-4.50078
-4.50124
-4.50157
-4.50203
-4.50278
-4.50388
-4.50531
-4.50705
-4.50907
-4.51131
-4.51376
-4.51637
-4.51914
-4.52203
-4.52504
-4.52816
-4.53136
-4.53464
-4.62628
-4.62723
-4.62844
-4.63001
-4.63113
-4.63175
-4.63189
-4.63191
-4.63212
-4.63264
-4.6335
-4.6347
-4.63619
-4.63793
-4.63989
-4.64202
-4.64431
-4.64674
-4.6493
-4.65197
-4.65473
-4.65758
-4.6605
-4.75738
-4.75814
-4.75921
-4.76058
-4.76153
-4.76198
-4.762
-4.76183
-4.76186
-4.76221
-4.76291
-4.76393
-4.7652
-4.7667
-4.76837
-4.77021
-4.77219
-4.77429
-4.77651
-4.77884
-4.78126
-4.78375
-4.78631
-4.88774
-4.88834
-4.88923
-4.89038
-4.89117
-4.89148
-4.89146
-4.89131
-4.89125
-4.89151
-4.89211
-4.89298
-4.89407
-4.89534
-4.89677
-4.89832
-4.89999
-4.90178
-4.90367
-4.90566
-4.90773
-4.90988
-4.91209
-5.01754
-5.01799
-5.01867
-5.01958
-5.02029
-5.02039
-5.0204
-5.02032
-5.02032
-5.02058
-5.02111
-5.02188
-5.02281
-5.02387
-5.02506
-5.02634
-5.02773
-5.0292
-5.03077
-5.03243
-5.03417
-5.03597
-5.03783
-5.14697
-5.14728
-5.14771
-5.14829
-5.14855
-5.14888
-5.14902
-5.14907
-5.1492
-5.14951
-5.15
-5.15067
-5.15144
-5.1523
-5.15325
-5.15428
-5.15538
-5.15656
-5.15782
-5.15915
-5.16056
-5.16203
-5.16355
-5.27626
-5.2764
-5.27664
-5.27697
-5.27717
-5.27741
-5.27761
-5.2778
-5.27805
-5.27839
-5.27884
-5.27939
-5.27999
-5.28065
-5.28137
-5.28214
-5.28297
-5.28386
-5.28481
-5.28584
-5.28692
-5.28806
-5.28924
-5.40563
-5.40561
-5.40565
-5.40579
-5.40594
-5.40615
-5.40639
-5.40665
-5.40696
-5.4073
-5.40767
-5.40808
-5.40851
-5.40895
-5.40943
-5.40994
-5.4105
-5.41111
-5.41176
-5.41248
-5.41324
-5.41406
-5.4149
-5.53522
-5.53501
-5.53487
-5.53486
-5.53495
-5.53512
-5.53536
-5.53565
-5.53596
-5.53626
-5.53654
-5.53679
-5.53702
-5.53724
-5.53747
-5.53772
-5.538
-5.53832
-5.53868
-5.53909
-5.53955
-5.54005
-5.54056
-5.66512
-5.66463
-5.66433
-5.6642
-5.6642
-5.66435
-5.66457
-5.66486
-5.66513
-5.66536
-5.66551
-5.66559
-5.66561
-5.6656
-5.66557
-5.66554
-5.66553
-5.66555
-5.6656
-5.66571
-5.66586
-5.66603
-5.6662
606.001
615.107
620.92
627.79
474.984
480.74
488.87
498.515
374.728
376.69
381.631
390.821
296.841
296.78
298.997
303.943
234.784
235.087
236.829
240.624
175.396
176.737
178.648
181.686
115.97
117.938
119.979
122.54
57.1145
59.4604
61.6713
63.9569
14.5456
16.194
17.6448
18.9965
-0.57997
-0.245314
0.0475048
0.26937
-1.81734
-1.79732
-1.75094
-1.70712
-1.95282
-1.95238
-1.92854
-1.89611
-2.02108
-2.01563
-2.00426
-1.99103
-2.13444
-2.13382
-2.13047
-2.12413
-2.26815
-2.26829
-2.26587
-2.26098
-2.40244
-2.40217
-2.4
-2.39643
-2.53128
-2.53108
-2.53007
-2.52855
-2.65461
-2.65572
-2.65639
-2.65655
-2.77682
-2.77898
-2.78089
-2.78235
-2.90042
-2.90315
-2.90576
-2.90811
-3.02549
-3.02848
-3.03145
-3.0343
-3.15137
-3.15447
-3.15759
-3.16067
-3.27756
-3.28068
-3.28383
-3.28697
-3.40385
-3.40691
-3.41001
-3.41312
-3.5301
-3.53305
-3.53606
-3.53906
-3.65627
-3.6591
-3.66196
-3.66483
-3.78234
-3.78502
-3.78772
-3.79043
-3.90833
-3.91084
-3.91337
-3.91591
-4.03423
-4.03656
-4.03892
-4.04128
-4.16005
-4.1622
-4.16438
-4.16656
-4.2858
-4.28777
-4.28976
-4.29176
-4.41149
-4.41328
-4.41509
-4.4169
-4.53712
-4.53873
-4.54036
-4.542
-4.66271
-4.66415
-4.66559
-4.66705
-4.78825
-4.78952
-4.79079
-4.79207
-4.91377
-4.91486
-4.91596
-4.91707
-5.03925
-5.04017
-5.0411
-5.04204
-5.16471
-5.16546
-5.16622
-5.16698
-5.29014
-5.29073
-5.29132
-5.29191
-5.41555
-5.41597
-5.4164
-5.41683
-5.54095
-5.54121
-5.54147
-5.54172
-5.66633
-5.66642
-5.66651
-5.6666
653.325
680.72
729.361
759.355
763.406
760.794
764.816
768.934
770.855
774.349
774.877
762.984
757.416
760.427
762.03
764.61
772.9
788.416
809.447
515.344
553.124
598.081
628.025
638.348
638.295
639.862
640.559
638.575
642.14
646.372
644.897
647.038
650.516
653.326
653.185
659.449
678.071
696.088
408.338
443.243
480.015
504.591
516.971
521.189
524.539
524.537
524.934
528.834
536.261
545.65
552.618
554.613
556.144
559.103
562.147
570.956
588.9
314.452
335.689
362.394
385.014
400.753
410.503
414.201
419.989
427.483
434.19
440.925
452.899
464.718
468.918
472.715
478.955
479.849
478.606
491.731
248.508
256.847
266.724
279.526
294.148
306.839
316.966
330.335
343.166
353.427
360.75
369.92
379.873
387.25
396.143
403.936
404.168
397.925
404.467
188.591
196.544
201.152
206.783
216.369
229.375
243.758
257.509
269.691
280.997
291.383
299.444
306.393
316.368
326.276
331.739
330.137
321.457
325.839
128.367
137.434
143.041
147.982
155.951
168.323
182.72
194.973
206.092
217.823
228.424
235.299
239.593
245.595
253.625
256.277
253.52
245.29
244.98
68.2974
75.7225
81.5027
86.8656
94.0348
105.166
119.98
134.633
148.476
161.237
170.948
175.314
176.104
176.561
178.88
174.839
171.531
166.26
160.026
21.2235
24.8191
28.0084
31.0626
34.8802
42.164
55.3003
73.8197
92.6231
108.278
117.794
120.254
117.85
111.456
101.321
90.4725
88.3647
87.1882
79.5307
0.61383
1.76008
2.56713
3.03984
4.30206
7.45794
13.0949
23.7957
42.8713
61.4495
70.2792
69.4748
63.8009
51.6891
37.5815
25.1432
23.6357
24.1275
18.8642
-1.65401
-1.59411
-1.47932
-1.3067
-0.979875
-0.0651658
1.86541
3.69249
9.16721
25.6086
33.24
31.7616
21.7819
11.8325
6.00391
-0.212108
-0.898
-0.530954
-1.76533
-1.84985
-1.81281
-1.75913
-1.67769
-1.57707
-1.43622
-0.94108
0.491017
1.00045
2.98065
5.95311
6.24727
2.72516
-1.34981
-2.28543
-2.1115
-2.11509
-2.08493
-2.02773
-1.97336
-1.9461
-1.90431
-1.84892
-1.79152
-1.75637
-1.72376
-1.39794
-1.36639
-2.91289
-2.97203
-2.80653
-2.63832
-2.55191
-2.45761
-2.33546
-2.26942
-2.22477
-2.17955
-2.11157
-2.089
-2.06109
-2.03116
-2.00784
-2.00543
-2.06207
-2.18497
-2.71962
-3.5026
-3.30517
-3.0636
-2.84634
-2.73854
-2.6052
-2.47881
-2.38451
-2.34147
-2.30104
-2.25025
-2.23501
-2.22124
-2.21161
-2.21169
-2.23634
-2.31138
-2.44627
-2.82422
-3.16551
-3.27922
-3.18177
-3.00173
-2.84482
-2.71102
-2.58435
-2.48205
-2.43049
-2.39647
-2.38946
-2.38176
-2.37897
-2.38261
-2.39597
-2.43121
-2.50108
-2.60155
-2.80242
-3.02726
-3.14936
-3.12602
-3.01733
-2.89381
-2.77132
-2.65872
-2.56647
-2.51378
-2.48174
-2.52561
-2.52465
-2.52883
-2.5398
-2.56093
-2.59507
-2.64946
-2.7217
-2.83375
-2.96345
-3.03984
-3.03616
-2.98494
-2.90524
-2.81835
-2.73352
-2.66066
-2.6096
-2.57921
-2.65687
-2.6608
-2.66892
-2.68292
-2.70554
-2.73743
-2.77905
-2.82751
-2.88934
-2.95757
-3.00322
-3.0126
-2.98816
-2.94213
-2.88726
-2.82704
-2.76764
-2.71975
-2.6925
-2.78506
-2.79183
-2.80202
-2.81638
-2.83689
-2.86452
-2.89796
-2.93444
-2.97168
-3.00793
-3.03375
-3.04195
-3.03044
-3.00282
-2.96736
-2.92688
-2.88112
-2.8417
-2.81978
-2.91234
-2.92053
-2.93126
-2.94512
-2.96312
-2.98537
-3.01103
-3.03804
-3.06355
-3.08687
-3.10462
-3.11114
-3.10381
-3.08568
-3.06181
-3.03246
-2.99959
-2.97778
-2.96514
-3.03933
-3.04807
-3.05866
-3.07162
-3.08722
-3.10537
-3.12548
-3.14598
-3.16476
-3.18143
-3.19454
-3.20053
-3.19792
-3.18872
-3.17417
-3.15339
-3.13023
-3.12229
-3.11759
-3.16604
-3.17484
-3.18502
-3.19689
-3.21047
-3.22557
-3.24176
-3.25801
-3.27294
-3.28612
-3.29673
-3.30268
-3.3033
-3.30128
-3.296
-3.28516
-3.27023
-3.26568
-3.26072
-3.29241
-3.30101
-3.31061
-3.3214
-3.33333
-3.34615
-3.35952
-3.3728
-3.38514
-3.39611
-3.40518
-3.41119
-3.41403
-3.41542
-3.41634
-3.41238
-3.40708
-3.40187
-3.39176
-3.41845
-3.42668
-3.43564
-3.44543
-3.45599
-3.46707
-3.47838
-3.48953
-3.49999
-3.5094
-3.51737
-3.52329
-3.52715
-3.52998
-3.53273
-3.53426
-3.53036
-3.5246
-3.51339
-3.5442
-3.55198
-3.56029
-3.56917
-3.57857
-3.58828
-3.59805
-3.60762
-3.61667
-3.6249
-3.63204
-3.63775
-3.64203
-3.64537
-3.64801
-3.64891
-3.64567
-3.64156
-3.63357
-3.66971
-3.677
-3.68467
-3.69273
-3.70113
-3.70973
-3.71831
-3.72668
-3.73462
-3.74194
-3.74843
-3.75388
-3.75827
-3.76179
-3.76436
-3.76532
-3.76371
-3.76159
-3.75825
-3.79503
-3.80181
-3.80887
-3.81619
-3.82373
-3.83138
-3.839
-3.84641
-3.85348
-3.86005
-3.86598
-3.87113
-3.87549
-3.87909
-3.88179
-3.88328
-3.88339
-3.88356
-3.88526
-3.9202
-3.92647
-3.93294
-3.93959
-3.94638
-3.95322
-3.96001
-3.96663
-3.97295
-3.97891
-3.98432
-3.98915
-3.99334
-3.99694
-3.9998
-4.00182
-4.00318
-4.00437
-4.00907
-4.04526
-4.05103
-4.05693
-4.06296
-4.06907
-4.0752
-4.08127
-4.08719
-4.09283
-4.09832
-4.10321
-4.10769
-4.11163
-4.11508
-4.11794
-4.12025
-4.1222
-4.12348
-4.12819
-4.17022
-4.1755
-4.18087
-4.18632
-4.19182
-4.19732
-4.20275
-4.20805
-4.21315
-4.218
-4.22245
-4.22663
-4.23023
-4.23344
-4.23617
-4.2384
-4.24044
-4.24146
-4.24388
-4.29511
-4.29991
-4.30478
-4.30969
-4.31462
-4.31954
-4.32439
-4.32913
-4.3337
-4.33803
-4.34207
-4.34579
-4.34908
-4.352
-4.3545
-4.35659
-4.35849
-4.35917
-4.3609
-4.41995
-4.42428
-4.42866
-4.43306
-4.43747
-4.44185
-4.44617
-4.45038
-4.45446
-4.45831
-4.46192
-4.46523
-4.46819
-4.4708
-4.47307
-4.47501
-4.47656
-4.47728
-4.4784
-4.54474
-4.54862
-4.55253
-4.55645
-4.56036
-4.56424
-4.56805
-4.57176
-4.57534
-4.57878
-4.58198
-4.58491
-4.58753
-4.58984
-4.59185
-4.59359
-4.5949
-4.59561
-4.5963
-4.66949
-4.67293
-4.6764
-4.67986
-4.6833
-4.6867
-4.69004
-4.69329
-4.69643
-4.69943
-4.70223
-4.7048
-4.7071
-4.70911
-4.71085
-4.71234
-4.71351
-4.71415
-4.71455
-4.79422
-4.79723
-4.80026
-4.80327
-4.80627
-4.80922
-4.81211
-4.81493
-4.81764
-4.82023
-4.82265
-4.82488
-4.82687
-4.8286
-4.83008
-4.83132
-4.8323
-4.83288
-4.83316
-4.91892
-4.92151
-4.92412
-4.9267
-4.92926
-4.93178
-4.93425
-4.93664
-4.93895
-4.94115
-4.94321
-4.94511
-4.94681
-4.94829
-4.94953
-4.95054
-4.95135
-4.95186
-4.95209
-5.0436
-5.04578
-5.04797
-5.05014
-5.05229
-5.05439
-5.05644
-5.05843
-5.06035
-5.06217
-5.06389
-5.06547
-5.06689
-5.06812
-5.06915
-5.06998
-5.07063
-5.07107
-5.07126
-5.16826
-5.17004
-5.17182
-5.17359
-5.17532
-5.17703
-5.17868
-5.18028
-5.18182
-5.18329
-5.18467
-5.18593
-5.18709
-5.18809
-5.18892
-5.18958
-5.19009
-5.19045
-5.19062
-5.29291
-5.29429
-5.29567
-5.29703
-5.29837
-5.29969
-5.30097
-5.30218
-5.30335
-5.30447
-5.30554
-5.30649
-5.3074
-5.30817
-5.30881
-5.30932
-5.3097
-5.30998
-5.31012
-5.41754
-5.41852
-5.41951
-5.42048
-5.42143
-5.42237
-5.4233
-5.42411
-5.42492
-5.42572
-5.42651
-5.42722
-5.42781
-5.42834
-5.42879
-5.42915
-5.42943
-5.42963
-5.42973
-5.54215
-5.54274
-5.54333
-5.54391
-5.5445
-5.5451
-5.54575
-5.54608
-5.54653
-5.54702
-5.54757
-5.54796
-5.54828
-5.54858
-5.54885
-5.54907
-5.54925
-5.54938
-5.54944
-5.66674
-5.66694
-5.66714
-5.66732
-5.66749
-5.66764
-5.66767
-5.66787
-5.66802
-5.66819
-5.66835
-5.66859
-5.66876
-5.6689
-5.66902
-5.66914
-5.66924
-5.66929
-5.66929
)
;

boundaryField
{
    leftWall
    {
        type            calculated;
        value           nonuniform List<scalar> 
50
(
5980.05
5187.6
4398.87
3610.7
2821.95
2031.09
1249.59
720.331
512.657
393.115
274.06
158.014
70.3234
20.3789
0.601187
-0.822366
-1.21455
-1.36029
-1.51009
-1.66128
-1.80917
-1.95178
-2.08911
-2.22241
-2.35418
-2.48628
-2.6193
-2.7531
-2.88734
-3.02176
-3.15621
-3.29061
-3.42495
-3.55927
-3.69347
-3.82742
-3.96126
-4.09504
-4.22863
-4.36182
-4.49441
-4.62628
-4.75738
-4.88774
-5.01754
-5.14697
-5.27626
-5.40563
-5.53522
-5.66512
)
;
    }
    rightWall
    {
        type            calculated;
        value           nonuniform List<scalar> 
50
(
2514.46
1811.4
1318.48
1118.28
1059.76
1001.6
943.099
884.7
809.447
696.088
588.9
491.731
404.467
325.839
244.98
160.026
79.5307
18.8642
-1.76533
-2.02773
-2.17955
-2.30104
-2.39647
-2.48174
-2.57921
-2.6925
-2.81978
-2.96514
-3.11759
-3.26072
-3.39176
-3.51339
-3.63357
-3.75825
-3.88526
-4.00907
-4.12819
-4.24388
-4.3609
-4.4784
-4.5963
-4.71455
-4.83316
-4.95209
-5.07126
-5.19062
-5.31012
-5.42973
-5.54944
-5.66929
)
;
    }
    lowerWall
    {
        type            calculated;
        value           nonuniform List<scalar> 
62
(
6378.2
6358.42
6319.4
6259.36
6178.8
6079.39
5965.3
5843.5
5721.25
5606.24
5503.72
5416.11
5342.8
5280.77
5226.74
5178.11
5132.67
5089.01
5047.58
5008.29
4973.23
4945.71
4927.68
4529.55
3729.46
2926.19
2125.75
1337.97
880.814
750.261
680.411
694.233
705.192
709.892
717.806
2904.09
2118.27
1444.66
1130.36
1032.21
971.833
905.267
812.12
3283.35
3300.48
3342.18
3350.94
3343.47
3340.19
3342.82
3349.87
3352.74
3346.53
3299.82
3212
3101.76
2995.92
2916.11
2869.95
2855.27
2877.57
2893.79
)
;
    }
    atmosphere
    {
        type            calculated;
        value           nonuniform List<scalar> 
46
(
-5.73022
-5.72934
-5.72908
-5.72905
-5.72904
-5.72914
-5.72937
-5.72967
-5.72994
-5.73012
-5.73018
-5.73015
-5.73005
-5.72989
-5.72971
-5.72953
-5.72936
-5.72921
-5.7291
-5.72904
-5.72904
-5.72904
-5.72904
-5.72904
-5.72904
-5.72904
-5.72904
-5.72904
-5.72904
-5.72904
-5.72904
-5.72904
-5.72904
-5.72904
-5.72904
-5.72904
-5.72904
-5.72904
-5.72904
-5.72904
-5.72904
-5.72905
-5.72905
-5.72907
-5.72908
-5.72906
)
;
    }
    defaultFaces
    {
        type            empty;
    }
}


// ************************************************************************* //
