/*--------------------------------*- C++ -*----------------------------------*\
| =========                 |                                                 |
| \\      /  F ield         | OpenFOAM: The Open Source CFD Toolbox           |
|  \\    /   O peration     | Version:  2312                                  |
|   \\  /    A nd           | Website:  www.openfoam.com                      |
|    \\/     M anipulation  |                                                 |
\*---------------------------------------------------------------------------*/
FoamFile
{
    version     2.0;
    format      ascii;
    arch        "LSB;label=32;scalar=64";
    class       surfaceScalarField;
    location    "3.05";
    object      phi;
}
// * * * * * * * * * * * * * * * * * * * * * * * * * * * * * * * * * * * * * //

dimensions      [0 3 -1 0 0 0 0];

oriented        oriented;

internalField   nonuniform List<scalar> 
4432
(
-5.44056e-07
5.44049e-07
-2.10382e-06
1.55976e-06
-3.70541e-06
1.60159e-06
-5.06729e-06
1.36187e-06
-6.02626e-06
9.58973e-07
-6.55329e-06
5.27039e-07
-6.68915e-06
1.35863e-07
-6.51009e-06
-1.79062e-07
-6.08252e-06
-4.27568e-07
-5.44673e-06
-6.35792e-07
-4.64315e-06
-8.03578e-07
-3.74524e-06
-8.97915e-07
-2.83881e-06
-9.06435e-07
-2.00064e-06
-8.38172e-07
-1.28702e-06
-7.13618e-07
-7.39793e-07
-5.47236e-07
-3.93539e-07
-3.46256e-07
-2.51909e-07
-1.41631e-07
-2.32677e-07
-1.92329e-08
-2.49477e-07
1.68007e-08
-2.6313e-07
1.36535e-08
-2.84483e-07
2.13539e-08
-2.84482e-07
-1.59225e-06
2.13629e-06
-3.23586e-06
3.20336e-06
-4.7367e-06
3.10242e-06
-5.93363e-06
2.55879e-06
-6.74027e-06
1.76561e-06
-7.14127e-06
9.28042e-07
-7.17937e-06
1.73974e-07
-6.92396e-06
-4.34464e-07
-6.44521e-06
-9.0632e-07
-5.76704e-06
-1.31396e-06
-4.92269e-06
-1.64793e-06
-3.9855e-06
-1.83511e-06
-3.04132e-06
-1.85062e-06
-2.17086e-06
-1.70865e-06
-1.42986e-06
-1.45463e-06
-8.57279e-07
-1.11982e-06
-4.90362e-07
-7.13182e-07
-3.3583e-07
-2.96169e-07
-2.9869e-07
-5.63753e-08
-2.84031e-07
2.13964e-09
-2.43692e-07
-2.66857e-08
-2.13495e-07
-8.84257e-09
-4.97977e-07
-2.21148e-06
4.34777e-06
-4.07987e-06
5.07175e-06
-5.62225e-06
4.6448e-06
-6.77637e-06
3.71292e-06
-7.50089e-06
2.49013e-06
-7.80059e-06
1.22774e-06
-7.73664e-06
1.10026e-07
-7.39379e-06
-7.77304e-07
-6.85166e-06
-1.44845e-06
-6.11792e-06
-2.04769e-06
-5.21295e-06
-2.5529e-06
-4.21349e-06
-2.83457e-06
-3.20262e-06
-2.8615e-06
-2.27054e-06
-2.64074e-06
-1.47549e-06
-2.24969e-06
-8.5063e-07
-1.74469e-06
-4.41922e-07
-1.12189e-06
-2.63977e-07
-4.74115e-07
-1.96728e-07
-1.23624e-07
-1.31714e-07
-6.28741e-08
-2.41889e-08
-1.34209e-07
3.36184e-08
-6.66487e-08
-4.64358e-07
-2.69792e-06
7.04568e-06
-4.81722e-06
7.19105e-06
-6.46153e-06
6.28911e-06
-7.6314e-06
4.88278e-06
-8.30321e-06
3.16195e-06
-8.50629e-06
1.43083e-06
-8.33505e-06
-6.12148e-08
-7.89539e-06
-1.21695e-06
-7.29348e-06
-2.05036e-06
-6.50929e-06
-2.83188e-06
-5.55323e-06
-3.50895e-06
-4.50578e-06
-3.88202e-06
-3.42441e-06
-3.94288e-06
-2.40731e-06
-3.65783e-06
-1.52477e-06
-3.13224e-06
-8.12358e-07
-2.45711e-06
-3.29606e-07
-1.60465e-06
-1.03819e-07
-6.99906e-07
5.49431e-09
-2.3294e-07
1.26491e-07
-1.83873e-07
2.51632e-07
-2.59351e-07
3.30842e-07
-1.4586e-07
-1.33517e-07
-2.92492e-06
9.97061e-06
-5.25674e-06
9.52286e-06
-7.0793e-06
8.11167e-06
-8.35264e-06
6.15613e-06
-9.0497e-06
3.85901e-06
-9.21281e-06
1.59394e-06
-8.88208e-06
-3.91937e-07
-8.30624e-06
-1.79279e-06
-7.62568e-06
-2.73092e-06
-6.81858e-06
-3.63898e-06
-5.8791e-06
-4.44843e-06
-4.87209e-06
-4.88903e-06
-3.77101e-06
-5.04396e-06
-2.6781e-06
-4.75075e-06
-1.70922e-06
-4.10111e-06
-9.4893e-07
-3.21739e-06
-4.75299e-07
-2.07828e-06
-2.08359e-07
-9.66842e-07
-4.21524e-08
-3.99143e-07
1.24881e-07
-3.50903e-07
2.45046e-07
-3.79514e-07
3.19302e-07
-2.20114e-07
1.85787e-07
-2.90479e-06
1.28754e-05
-5.35424e-06
1.19723e-05
-7.34613e-06
1.01036e-05
-8.67026e-06
7.48026e-06
-9.27443e-06
4.46319e-06
-9.20466e-06
1.52416e-06
-8.77915e-06
-8.1745e-07
-8.14317e-06
-2.42876e-06
-7.64118e-06
-3.23291e-06
-7.01921e-06
-4.26093e-06
-6.20443e-06
-5.2632e-06
-5.29833e-06
-5.79511e-06
-4.21508e-06
-6.12718e-06
-3.14241e-06
-5.8234e-06
-2.14024e-06
-5.10326e-06
-1.58064e-06
-3.77698e-06
-1.40558e-06
-2.25333e-06
-1.22627e-06
-1.14615e-06
-1.02878e-06
-5.96631e-07
-9.04098e-07
-4.75588e-07
-9.55197e-07
-3.2842e-07
-7.18316e-07
-4.57004e-07
-5.32546e-07
-2.66602e-06
1.55414e-05
-5.05721e-06
1.43635e-05
-7.07183e-06
1.21182e-05
-8.42238e-06
8.83082e-06
-9.04155e-06
5.08236e-06
-9.04605e-06
1.52866e-06
-8.30332e-06
-1.56018e-06
-7.44e-06
-3.29207e-06
-6.72617e-06
-3.94673e-06
-5.92101e-06
-5.06608e-06
-5.10937e-06
-6.07481e-06
-4.26874e-06
-6.6357e-06
-3.25337e-06
-7.14252e-06
-2.37143e-06
-6.7053e-06
-1.47217e-06
-6.0025e-06
-3.63343e-06
-1.6157e-06
-7.27228e-06
1.38553e-06
-9.82913e-06
1.4107e-06
-1.15438e-05
1.11805e-06
-1.25181e-05
4.98669e-07
-1.22281e-05
-6.18389e-07
-9.03331e-06
-3.65185e-06
-9.56586e-06
-1.76117e-06
1.73026e-05
-3.41751e-06
1.60199e-05
-4.70301e-06
1.34037e-05
-5.25565e-06
9.38345e-06
-4.69669e-06
4.5234e-06
-3.02121e-06
-1.46809e-07
-8.9942e-07
-3.68196e-06
7.81781e-08
-4.26966e-06
-1.58932e-07
-3.7096e-06
-7.61194e-07
-4.4638e-06
-9.82532e-07
-5.85345e-06
-1.24614e-06
-6.37208e-06
-2.25719e-06
-6.13144e-06
-3.77484e-06
-5.18763e-06
-5.59207e-06
-4.18525e-06
-9.50462e-06
2.29686e-06
-1.16576e-05
3.53856e-06
-1.2102e-05
1.85508e-06
-1.29817e-05
1.99769e-06
-1.38043e-05
1.32131e-06
-1.41087e-05
-3.13989e-07
-1.3088e-05
-4.6726e-06
-2.26538e-05
-7.79172e-06
7.79171e-06
-1.19285e-05
4.13678e-06
-1.28295e-05
9.01001e-07
-1.16469e-05
-1.18264e-06
-9.69829e-06
-1.94858e-06
-7.74638e-06
-1.95191e-06
-6.231e-06
-1.51538e-06
-5.70022e-06
-5.30773e-07
-6.80421e-06
1.10399e-06
-8.16479e-06
1.36059e-06
-8.72429e-06
5.59503e-07
-8.03313e-06
-6.9116e-07
-6.52578e-06
-1.50735e-06
-4.62378e-06
-1.902e-06
-2.82326e-06
-1.80051e-06
-1.41552e-06
-1.40774e-06
-3.71766e-07
-1.04375e-06
1.60178e-07
-5.31937e-07
1.60181e-07
-5.76981e-06
1.35615e-05
-9.38644e-06
7.75339e-06
-9.95132e-06
1.46588e-06
-8.59344e-06
-2.54053e-06
-6.58859e-06
-3.95344e-06
-4.42913e-06
-4.11139e-06
-2.37862e-06
-3.56589e-06
-1.24386e-06
-1.66553e-06
-1.88062e-06
1.74074e-06
-3.20483e-06
2.68481e-06
-4.17908e-06
1.53376e-06
-4.47163e-06
-3.98606e-07
-4.36046e-06
-1.61851e-06
-3.75111e-06
-2.51134e-06
-3.29947e-06
-2.25214e-06
-2.96448e-06
-1.74271e-06
-2.46966e-06
-1.53855e-06
-1.07818e-06
-1.9234e-06
-9.17984e-07
-6.51398e-06
2.00755e-05
-1.07156e-05
1.1955e-05
-1.12524e-05
2.00267e-06
-9.61315e-06
-4.17973e-06
-7.54034e-06
-6.02625e-06
-4.91644e-06
-6.73527e-06
-2.52886e-06
-5.95346e-06
-1.11821e-06
-3.07618e-06
-1.0487e-06
1.67124e-06
-2.08798e-06
3.72409e-06
-3.1579e-06
2.60368e-06
-4.1438e-06
5.8731e-07
-5.04405e-06
-7.18251e-07
-4.96083e-06
-2.59454e-06
-4.711e-06
-2.50195e-06
-4.81978e-06
-1.63391e-06
-5.11344e-06
-1.24487e-06
-3.60133e-06
-3.43548e-06
-4.5193e-06
-4.75706e-06
2.48325e-05
-1.15429e-05
1.87408e-05
-1.53821e-05
5.84182e-06
-1.42934e-05
-5.2684e-06
-1.18787e-05
-8.44101e-06
-8.35861e-06
-1.02553e-05
-5.1342e-06
-9.17789e-06
-3.40792e-06
-4.80245e-06
-2.81217e-06
1.0755e-06
-5.50546e-06
6.41738e-06
-9.57321e-06
6.67144e-06
-1.25128e-05
3.52692e-06
-1.13057e-05
-1.92538e-06
-7.61678e-06
-6.28339e-06
-2.64146e-06
-7.47723e-06
4.53618e-07
-4.72894e-06
-9.00185e-07
1.0899e-07
-2.01489e-06
-2.32072e-06
-6.53411e-06
-2.28954e-08
2.48554e-05
-1.14269e-08
1.87293e-05
-7.58855e-06
1.3419e-05
-1.78964e-05
5.03947e-06
-2.16889e-05
-4.64848e-06
-1.90608e-05
-1.28835e-05
-1.63891e-05
-1.18495e-05
-1.53901e-05
-5.8014e-06
-1.51151e-05
8.00569e-07
-1.75508e-05
8.85306e-06
-2.25744e-05
1.16951e-05
-2.21927e-05
3.14526e-06
-1.5552e-05
-8.56608e-06
-9.22683e-06
-1.26086e-05
-2.90284e-06
-1.38012e-05
5.31011e-06
-1.29419e-05
8.76294e-06
-3.34382e-06
3.91443e-06
2.52782e-06
-2.61968e-06
4.59368e-06
2.02616e-05
6.13741e-06
1.71855e-05
-2.95578e-06
2.25121e-05
-1.47032e-05
1.67869e-05
-2.19521e-05
2.60039e-06
-2.30364e-05
-1.17992e-05
-2.27841e-05
-1.21018e-05
-2.30128e-05
-5.57271e-06
-2.24222e-05
2.09917e-07
-2.09512e-05
7.38205e-06
-2.0883e-05
1.16269e-05
-1.75673e-05
-1.70401e-07
-1.3398e-05
-1.27354e-05
-1.14036e-05
-1.4603e-05
-8.68973e-06
-1.6515e-05
-2.37517e-06
-1.92564e-05
4.83182e-06
-1.05508e-05
4.79505e-06
2.56463e-06
2.17542e-06
6.78041e-06
1.34812e-05
6.76308e-06
1.72028e-05
-2.64876e-06
3.19239e-05
-1.32623e-05
2.74004e-05
-2.19347e-05
1.12728e-05
-2.6818e-05
-6.91592e-06
-2.83887e-05
-1.05311e-05
-2.81763e-05
-5.78515e-06
-2.48835e-05
-3.08289e-06
-1.94308e-05
1.92942e-06
-1.55761e-05
7.77225e-06
-1.26325e-05
-3.11402e-06
-1.30565e-05
-1.23114e-05
-1.46968e-05
-1.29626e-05
-1.4472e-05
-1.67398e-05
-1.16202e-05
-2.21082e-05
-3.45625e-06
-1.87147e-05
1.99362e-06
-2.8852e-06
4.16905e-06
1.52676e-06
1.19544e-05
2.37961e-07
1.84916e-05
-6.59308e-06
3.8755e-05
-1.41578e-05
3.49651e-05
-2.18639e-05
1.8979e-05
-2.73156e-05
-1.46425e-06
-2.85989e-05
-9.24782e-06
-2.68371e-05
-7.54703e-06
-2.31165e-05
-6.8034e-06
-1.71346e-05
-4.05253e-06
-1.11793e-05
1.817e-06
-1.03522e-05
-3.94113e-06
-1.54825e-05
-7.18106e-06
-1.86698e-05
-9.77532e-06
-1.9889e-05
-1.55206e-05
-1.85716e-05
-2.34256e-05
-1.20128e-05
-2.52734e-05
-3.44697e-06
-1.1451e-05
7.22131e-07
2.78956e-06
1.4513e-05
5.68851e-06
1.31209e-05
7.6972e-06
1.13949e-05
8.76061e-06
8.32003e-06
9.8642e-06
3.41981e-06
1.14654e-05
-1.74802e-06
1.28441e-05
-5.06062e-06
1.44815e-05
-5.90711e-06
1.55906e-05
-4.81862e-06
1.49389e-05
-3.81208e-06
1.30996e-05
-4.01415e-06
1.08244e-05
-4.09687e-06
7.48477e-06
-2.79181e-06
3.50086e-06
-1.2037e-06
-2.27756e-07
-4.56618e-07
-7.34192e-06
9.41104e-06
-1.27276e-05
8.92427e-06
-1.68246e-05
5.95206e-06
-2.15827e-05
6.75577e-06
-2.61033e-05
5.84189e-06
-3.07069e-05
4.28962e-06
-3.67901e-05
1.41062e-06
-9.17007e-06
-5.02738e-05
2.19385e-06
1.23191e-05
5.56764e-06
9.74706e-06
8.91199e-06
8.05056e-06
1.2355e-05
4.87698e-06
1.59848e-05
-2.09973e-07
1.78563e-05
-3.61954e-06
1.92165e-05
-6.42086e-06
2.0769e-05
-7.45958e-06
2.18733e-05
-5.92289e-06
2.15088e-05
-3.44757e-06
1.95667e-05
-2.07202e-06
1.63321e-05
-8.6233e-07
1.23905e-05
1.14985e-06
8.31074e-06
2.87605e-06
3.54004e-06
4.3141e-06
2.04519e-06
1.09059e-05
1.10637e-06
9.8631e-06
-4.45994e-06
1.15184e-05
-9.9826e-06
1.22784e-05
-1.49173e-05
1.07766e-05
-2.28015e-05
1.21739e-05
-3.98084e-05
1.84175e-05
1.74594e-05
-6.64378e-05
3.70274e-06
8.61633e-06
8.15693e-06
5.29284e-06
1.36264e-05
2.58111e-06
1.93227e-05
-8.19405e-07
2.28169e-05
-3.70417e-06
2.24373e-05
-3.23991e-06
2.02695e-05
-4.2531e-06
2.09692e-05
-8.1593e-06
2.27566e-05
-7.7103e-06
2.19872e-05
-2.6782e-06
1.86918e-05
1.22343e-06
1.42624e-05
3.56703e-06
9.0655e-06
6.34676e-06
2.56882e-06
9.37274e-06
-4.40272e-06
1.12856e-05
-7.31225e-06
1.38154e-05
-1.26493e-05
1.52002e-05
-1.96707e-05
1.85397e-05
-2.54968e-05
1.81045e-05
-3.15797e-05
1.68595e-05
-3.76187e-05
1.82128e-05
-4.49235e-05
2.57222e-05
2.98433e-05
-5.73074e-05
7.04507e-06
1.57124e-06
1.23414e-05
-3.53935e-09
1.71672e-05
-2.24473e-06
2.08979e-05
-4.55004e-06
2.2224e-05
-5.03034e-06
2.19226e-05
-2.93855e-06
1.75301e-05
1.39435e-07
1.45065e-05
-5.13573e-06
1.41938e-05
-7.39762e-06
9.96123e-06
1.55432e-06
5.90867e-06
5.27597e-06
1.65026e-06
7.82542e-06
-3.61663e-06
1.16136e-05
-9.84264e-06
1.55988e-05
-1.59269e-05
1.73699e-05
-2.0183e-05
1.80715e-05
-2.35454e-05
1.85626e-05
-2.49172e-05
1.99115e-05
-2.66535e-05
1.98409e-05
-2.89442e-05
1.91502e-05
-3.11321e-05
2.04007e-05
-3.17657e-05
2.63558e-05
3.19693e-05
-3.38916e-05
3.81925e-06
-2.24803e-06
5.21572e-06
-1.40003e-06
5.1108e-06
-2.13983e-06
4.73912e-06
-4.17838e-06
6.98633e-06
-7.27756e-06
1.0257e-05
-6.20922e-06
8.53855e-06
1.85785e-06
2.30553e-06
1.09727e-06
-2.55981e-06
-2.53231e-06
-4.72258e-06
3.71707e-06
-4.16176e-06
4.71514e-06
-4.0417e-06
7.70535e-06
-4.41037e-06
1.19823e-05
-5.21048e-06
1.63989e-05
-6.9456e-06
1.91051e-05
-9.47591e-06
2.06018e-05
-1.24994e-05
2.15861e-05
-1.50237e-05
2.24358e-05
-1.72259e-05
2.20431e-05
-1.96061e-05
2.15303e-05
-2.11353e-05
2.193e-05
-1.97951e-05
2.50155e-05
2.93837e-05
-1.72095e-05
-2.45801e-06
2.09995e-07
-4.7037e-06
8.45682e-07
-6.71253e-06
-1.30984e-07
-8.45056e-06
-2.44034e-06
-1.00963e-05
-5.63185e-06
-1.13144e-05
-4.99113e-06
-4.6351e-06
-4.8214e-06
-4.51857e-06
9.80738e-07
-2.3845e-06
-4.66638e-06
3.54334e-06
-2.21076e-06
8.29544e-06
-3.69602e-08
1.1231e-05
4.7698e-06
1.25888e-05
1.06245e-05
1.28253e-05
1.61624e-05
1.16873e-05
2.02431e-05
9.56836e-06
2.27208e-05
6.3798e-06
2.47747e-05
2.78905e-06
2.60266e-05
-5.65301e-07
2.53974e-05
-4.09505e-06
2.506e-05
-7.56244e-06
2.53973e-05
-8.79507e-06
2.62482e-05
2.69111e-05
-6.32254e-06
-1.31433e-05
1.33534e-05
-2.87317e-05
1.64342e-05
-4.01618e-05
1.12992e-05
-3.95472e-05
-3.05484e-06
-3.0576e-05
-1.46029e-05
-1.58011e-05
-1.97659e-05
3.66543e-06
-2.42878e-05
1.7374e-05
-1.27278e-05
1.59817e-05
-3.27397e-06
1.49318e-05
-1.16081e-06
1.69676e-05
-2.07256e-06
1.94404e-05
2.2973e-06
2.12862e-05
8.77894e-06
2.32697e-05
1.4179e-05
2.30012e-05
2.05117e-05
2.21692e-05
2.35528e-05
2.02241e-05
2.67198e-05
1.70526e-05
2.91982e-05
1.32222e-05
2.92278e-05
9.40051e-06
2.88817e-05
6.09832e-06
2.86995e-05
4.2053e-06
2.81412e-05
2.63426e-05
4.77375e-06
1.03744e-05
2.97938e-06
2.5306e-05
1.50298e-06
3.77651e-05
-1.15938e-06
4.7284e-05
-1.25732e-05
5.26795e-05
-1.99979e-05
5.77633e-05
-2.48494e-05
6.1297e-05
-2.7821e-05
7.84286e-05
-2.98591e-05
9.34921e-05
-1.83371e-05
9.41796e-05
-1.84795e-06
7.67391e-05
1.53686e-05
4.98077e-05
2.92295e-05
1.81189e-05
4.04685e-05
-3.25699e-06
3.55552e-05
-1.26087e-06
1.85158e-05
5.87043e-06
1.64216e-05
1.05073e-05
2.2083e-05
1.15444e-05
2.81611e-05
9.99004e-06
3.07821e-05
1.00384e-05
2.88334e-05
1.10641e-05
2.76738e-05
1.18618e-05
2.73434e-05
2.52559e-05
1.29486e-05
2.02187e-05
-1.72384e-05
4.06329e-05
-1.89103e-05
5.92318e-05
-1.97574e-05
6.94146e-05
-2.27553e-05
7.55474e-05
-2.613e-05
7.7775e-05
-2.70763e-05
7.61257e-05
-2.61712e-05
6.94106e-05
-2.31435e-05
6.49352e-05
-1.38611e-05
6.16047e-05
1.48314e-06
5.85277e-05
1.84461e-05
5.40941e-05
3.36637e-05
5.10003e-05
4.35629e-05
4.57461e-05
4.08099e-05
3.55853e-05
2.86769e-05
2.53472e-05
2.66601e-05
1.89571e-05
2.84734e-05
1.6143e-05
3.09754e-05
1.99649e-06
4.4929e-05
-4.73337e-06
3.55638e-05
1.19161e-06
2.17492e-05
5.4092e-06
2.3126e-05
2.37168e-05
6.94831e-06
2.0886e-05
-3.81234e-05
3.745e-05
-3.54734e-05
5.11178e-05
-3.34244e-05
6.09228e-05
-3.25595e-05
6.718e-05
-3.23865e-05
7.054e-05
-3.04356e-05
6.97557e-05
-2.53862e-05
6.40966e-05
-1.74839e-05
5.75721e-05
-7.33603e-06
5.43429e-05
4.71282e-06
5.59424e-05
1.68471e-05
6.1974e-05
2.76324e-05
7.17441e-05
3.3793e-05
7.9768e-05
3.27863e-05
8.07227e-05
2.77223e-05
8.11899e-05
2.61932e-05
7.95617e-05
3.01023e-05
7.28531e-05
3.76851e-05
7.0243e-05
4.75405e-05
5.4861e-05
5.09472e-05
2.47758e-05
5.18356e-05
-1.85338e-06
4.97554e-05
2.28858e-05
-1.02191e-06
1.56605e-05
-5.37831e-05
2.90149e-05
-4.88269e-05
3.98985e-05
-4.43073e-05
4.79383e-05
-4.05986e-05
5.27967e-05
-3.72442e-05
5.50203e-05
-3.26585e-05
5.49658e-05
-2.53312e-05
5.3567e-05
-1.60844e-05
5.25789e-05
-6.34739e-06
5.40245e-05
3.2677e-06
5.83515e-05
1.25204e-05
6.67718e-05
1.92123e-05
7.83037e-05
2.22612e-05
8.89813e-05
2.21087e-05
9.62642e-05
2.04395e-05
0.00010089
2.15673e-05
0.000103527
2.74664e-05
0.000104159
3.70532e-05
0.000103458
4.82419e-05
9.82755e-05
5.61297e-05
9.38265e-05
5.6285e-05
9.2249e-05
5.13337e-05
4.34912e-05
7.1644e-05
1.00679e-05
-6.38502e-05
1.91516e-05
-5.79098e-05
2.65236e-05
-5.16786e-05
3.20652e-05
-4.61395e-05
3.56751e-05
-4.08534e-05
3.73879e-05
-3.43707e-05
3.80912e-05
-2.60338e-05
3.85515e-05
-1.65441e-05
3.99027e-05
-7.69806e-06
4.36569e-05
-4.86037e-07
5.02713e-05
5.90642e-06
5.89779e-05
1.0506e-05
6.90953e-05
1.21439e-05
7.90396e-05
1.21646e-05
8.74318e-05
1.20473e-05
9.45867e-05
1.44123e-05
0.000100849
2.12036e-05
0.000106695
3.1207e-05
0.00011254
4.23965e-05
0.000117917
5.07515e-05
0.000121677
5.25248e-05
0.000122225
5.07847e-05
4.38656e-05
0.000121851
5.17005e-06
-6.90195e-05
9.78873e-06
-6.25277e-05
1.33104e-05
-5.51995e-05
1.57763e-05
-4.86047e-05
1.74581e-05
-4.25346e-05
1.82896e-05
-3.52017e-05
1.8744e-05
-2.64877e-05
1.93949e-05
-1.71945e-05
2.10012e-05
-9.3038e-06
2.44749e-05
-3.95926e-06
2.98691e-05
5.12623e-07
3.5294e-05
5.08144e-06
4.23485e-05
5.08972e-06
4.99867e-05
4.5266e-06
5.80353e-05
3.99887e-06
6.70513e-05
5.39633e-06
7.68581e-05
1.13968e-05
8.69976e-05
2.10671e-05
9.77119e-05
3.16814e-05
0.000107649
4.08137e-05
0.000114683
4.5489e-05
0.000119267
4.62002e-05
4.29873e-05
0.000120146
8.73437e-07
-6.98921e-05
1.39128e-06
-6.30448e-05
1.22927e-06
-5.50368e-05
5.49129e-07
-4.79239e-05
-5.43682e-07
-4.14411e-05
-1.88016e-06
-3.38646e-05
-3.15326e-06
-2.5214e-05
-4.18449e-06
-1.61628e-05
-4.71581e-06
-8.77198e-06
-3.96757e-06
-4.70703e-06
-1.06984e-06
-2.38468e-06
2.9828e-06
1.0292e-06
7.57638e-06
4.96503e-07
1.23676e-05
-2.64223e-07
1.78242e-05
-1.45748e-06
2.56212e-05
-2.40049e-06
3.64236e-05
5.94524e-07
4.96041e-05
7.88647e-06
6.36254e-05
1.76599e-05
7.68082e-05
2.76303e-05
8.76191e-05
3.46777e-05
9.53577e-05
3.84609e-05
3.93361e-05
9.90094e-05
-2.67918e-06
-6.72123e-05
-5.62843e-06
-6.00949e-05
-8.86957e-06
-5.1795e-05
-1.24093e-05
-4.43836e-05
-1.6229e-05
-3.76208e-05
-2.04003e-05
-2.96928e-05
-2.44465e-05
-2.11673e-05
-2.76867e-05
-1.29221e-05
-2.92643e-05
-7.194e-06
-2.79754e-05
-5.99554e-06
-2.49129e-05
-5.44675e-06
-2.11075e-05
-2.77586e-06
-1.9025e-05
-1.58554e-06
-1.7466e-05
-1.82282e-06
-1.44549e-05
-4.4683e-06
-1.04164e-05
-6.43865e-06
-3.75458e-06
-6.06704e-06
7.28967e-06
-3.1576e-06
2.16649e-05
3.28463e-06
3.63191e-05
1.2976e-05
4.9077e-05
2.19195e-05
5.92362e-05
2.83019e-05
3.29146e-05
6.56582e-05
-5.37326e-06
-6.18382e-05
-1.07813e-05
-5.46861e-05
-1.61552e-05
-4.64204e-05
-2.16714e-05
-3.88668e-05
-2.74617e-05
-3.183e-05
-3.28848e-05
-2.42692e-05
-3.72486e-05
-1.68031e-05
-3.93617e-05
-1.08086e-05
-3.88975e-05
-7.65778e-06
-3.72251e-05
-7.66749e-06
-3.55461e-05
-7.12543e-06
-3.37634e-05
-4.55813e-06
-3.22004e-05
-3.1481e-06
-3.02035e-05
-3.81935e-06
-2.77668e-05
-6.9047e-06
-2.51642e-05
-9.04087e-06
-2.25697e-05
-8.66124e-06
-1.88433e-05
-6.88374e-06
-1.18726e-05
-3.68586e-06
-1.48662e-06
2.59008e-06
1.02953e-05
1.01376e-05
2.10704e-05
1.75265e-05
2.50378e-05
2.89483e-05
-6.92278e-06
-5.49148e-05
-1.35048e-05
-4.81035e-05
-1.96251e-05
-4.02994e-05
-2.53615e-05
-3.31298e-05
-3.06653e-05
-2.65256e-05
-3.46901e-05
-2.02439e-05
-3.68549e-05
-1.46379e-05
-3.70819e-05
-1.05811e-05
-3.62254e-05
-8.51378e-06
-3.59633e-05
-7.92921e-06
-3.58313e-05
-7.25704e-06
-3.44042e-05
-5.98485e-06
-3.23119e-05
-5.24005e-06
-3.03808e-05
-5.75005e-06
-2.97015e-05
-7.58367e-06
-2.98059e-05
-8.93612e-06
-3.00985e-05
-8.36831e-06
-3.01611e-05
-6.82077e-06
-2.90622e-05
-4.7845e-06
-2.50568e-05
-1.41526e-06
-1.84777e-05
3.5584e-06
-1.06349e-05
9.68415e-06
1.66858e-05
-2.28232e-06
-7.36696e-06
-4.7547e-05
-1.40261e-05
-4.14437e-05
-1.97557e-05
-3.45691e-05
-2.45245e-05
-2.83605e-05
-2.82644e-05
-2.27851e-05
-3.06609e-05
-1.78469e-05
-3.15596e-05
-1.37387e-05
-3.13564e-05
-1.07839e-05
-3.07763e-05
-9.09353e-06
-3.04131e-05
-8.29198e-06
-3.00109e-05
-7.65887e-06
-2.90635e-05
-6.93185e-06
-2.78258e-05
-6.47736e-06
-2.69429e-05
-6.63265e-06
-2.72299e-05
-7.29633e-06
-2.85419e-05
-7.62377e-06
-2.9889e-05
-7.02095e-06
-3.09046e-05
-5.8048e-06
-3.15847e-05
-4.10421e-06
-3.12707e-05
-1.72923e-06
-2.92511e-05
1.53896e-06
-2.54415e-05
5.87411e-06
1.10527e-05
-1.98073e-05
-7.12801e-06
-4.04184e-05
-1.33378e-05
-3.52332e-05
-1.83504e-05
-2.9556e-05
-2.2135e-05
-2.45754e-05
-2.47207e-05
-2.01989e-05
-2.6121e-05
-1.64462e-05
-2.64532e-05
-1.34061e-05
-2.60654e-05
-1.11712e-05
-2.54366e-05
-9.72193e-06
-2.48999e-05
-8.82834e-06
-2.44035e-05
-8.15482e-06
-2.37866e-05
-7.54844e-06
-2.31583e-05
-7.10534e-06
-2.28617e-05
-6.92891e-06
-2.32508e-05
-6.90689e-06
-2.42248e-05
-6.64945e-06
-2.53648e-05
-5.88071e-06
-2.65128e-05
-4.65646e-06
-2.75894e-05
-3.02743e-06
-2.83301e-05
-9.88579e-07
-2.83218e-05
1.53051e-06
-2.71141e-05
4.66695e-06
8.36048e-06
-2.44214e-05
-6.64008e-06
-3.37775e-05
-1.23186e-05
-2.95541e-05
-1.67445e-05
-2.51294e-05
-1.98994e-05
-2.142e-05
-2.18725e-05
-1.82253e-05
-2.28016e-05
-1.55167e-05
-2.28999e-05
-1.33073e-05
-2.24645e-05
-1.16063e-05
-2.18231e-05
-1.03629e-05
-2.12043e-05
-9.44681e-06
-2.06561e-05
-8.70264e-06
-2.01542e-05
-8.04994e-06
-1.97599e-05
-7.49936e-06
-1.96313e-05
-7.05715e-06
-1.99073e-05
-6.63059e-06
-2.05318e-05
-6.02468e-06
-2.13171e-05
-5.09519e-06
-2.21526e-05
-3.82074e-06
-2.2964e-05
-2.21584e-06
-2.36289e-05
-3.23702e-07
-2.39658e-05
1.86749e-06
-2.36514e-05
4.35199e-06
7.14668e-06
-2.24366e-05
-6.14472e-06
-2.76323e-05
-1.13798e-05
-2.43184e-05
-1.54244e-05
-2.10842e-05
-1.82676e-05
-1.85763e-05
-2.00125e-05
-1.64799e-05
-2.08264e-05
-1.47024e-05
-2.09272e-05
-1.3206e-05
-2.05658e-05
-1.19673e-05
-1.9985e-05
-1.09433e-05
-1.93628e-05
-1.00687e-05
-1.87841e-05
-9.28098e-06
-1.82863e-05
-8.54734e-06
-1.79231e-05
-7.86228e-06
-1.77714e-05
-7.20855e-06
-1.78811e-05
-6.52065e-06
-1.82125e-05
-5.69298e-06
-1.86663e-05
-4.64109e-06
-1.91557e-05
-3.33119e-06
-1.9609e-05
-1.76235e-06
-1.99435e-05
1.06696e-08
-2.00713e-05
1.99507e-06
-1.98266e-05
4.10779e-06
6.35254e-06
-1.90321e-05
-5.72515e-06
-2.19063e-05
-1.06241e-05
-1.94188e-05
-1.4431e-05
-1.72768e-05
-1.71389e-05
-1.58679e-05
-1.8845e-05
-1.47734e-05
-1.9707e-05
-1.384e-05
-1.99195e-05
-1.29931e-05
-1.96911e-05
-1.21953e-05
-1.92139e-05
-1.14202e-05
-1.86362e-05
-1.06461e-05
-1.80554e-05
-9.86137e-06
-1.75357e-05
-9.06674e-06
-1.71309e-05
-8.26684e-06
-1.68878e-05
-7.45136e-06
-1.68257e-05
-6.58246e-06
-1.69159e-05
-5.60257e-06
-1.70956e-05
-4.46114e-06
-1.72955e-05
-3.13104e-06
-1.74486e-05
-1.60917e-06
-1.74984e-05
6.04651e-08
-1.73663e-05
1.86304e-06
-1.69745e-05
3.7156e-06
5.59895e-06
-1.622e-05
-5.39393e-06
-1.6512e-05
-1.00432e-05
-1.4769e-05
-1.36939e-05
-1.36257e-05
-1.63394e-05
-1.3222e-05
-1.8064e-05
-1.30483e-05
-1.90048e-05
-1.28989e-05
-1.93286e-05
-1.26689e-05
-1.92118e-05
-1.23118e-05
-1.88191e-05
-1.18125e-05
-1.82868e-05
-1.11781e-05
-1.77167e-05
-1.04312e-05
-1.7182e-05
-9.60114e-06
-1.67358e-05
-8.71282e-06
-1.64121e-05
-7.77472e-06
-1.62198e-05
-6.77449e-06
-1.6137e-05
-5.68514e-06
-1.61185e-05
-4.47949e-06
-1.6108e-05
-3.14125e-06
-1.60464e-05
-1.67068e-06
-1.58901e-05
-9.58699e-08
-1.55722e-05
1.54507e-06
-1.50502e-05
3.19406e-06
4.81468e-06
-1.42653e-05
-5.13956e-06
-1.13717e-05
-9.60358e-06
-1.03044e-05
-1.3144e-05
-1.00847e-05
-1.57498e-05
-1.06158e-05
-1.74891e-05
-1.13086e-05
-1.84772e-05
-1.19104e-05
-1.88585e-05
-1.22873e-05
-1.87908e-05
-1.23792e-05
-1.84282e-05
-1.21747e-05
-1.79061e-05
-1.16998e-05
-1.7332e-05
-1.10049e-05
-1.67836e-05
-1.01493e-05
-1.63113e-05
-9.18489e-06
-1.59406e-05
-8.14514e-06
-1.56734e-05
-7.04147e-06
-1.54894e-05
-5.86891e-06
-1.53514e-05
-4.61727e-06
-1.52126e-05
-3.27985e-06
-1.50228e-05
-1.86042e-06
-1.47394e-05
-3.79289e-07
-1.43178e-05
1.12369e-06
-1.37295e-05
2.6053e-06
4.02871e-06
-1.29427e-05
-4.94493e-06
-6.4264e-06
-9.26924e-06
-5.9796e-06
-1.2727e-05
-6.62647e-06
-1.52989e-05
-8.04347e-06
-1.70348e-05
-9.57231e-06
-1.8029e-05
-1.09158e-05
-1.84094e-05
-1.19066e-05
-1.83256e-05
-1.24626e-05
-1.79329e-05
-1.25671e-05
-1.73736e-05
-1.22589e-05
-1.67638e-05
-1.16144e-05
-1.61865e-05
-1.07264e-05
-1.56904e-05
-9.68075e-06
-1.52943e-05
-8.54096e-06
-1.49931e-05
-7.34248e-06
-1.47635e-05
-6.09837e-06
-1.45703e-05
-4.81024e-06
-1.43718e-05
-3.47816e-06
-1.41246e-05
-2.10752e-06
-1.37901e-05
-7.13837e-07
-1.33373e-05
6.70815e-07
-1.27457e-05
2.01409e-06
3.2804e-06
-1.1997e-05
-4.78805e-06
-1.63759e-06
-8.99881e-06
-1.76832e-06
-1.23822e-05
-3.24261e-06
-1.49136e-05
-5.51169e-06
-1.66233e-05
-7.86227e-06
-1.7586e-05
-9.95272e-06
-1.7919e-05
-1.15732e-05
-1.77718e-05
-1.26096e-05
-1.73062e-05
-1.30324e-05
-1.66745e-05
-1.28903e-05
-1.60022e-05
-1.22864e-05
-1.53784e-05
-1.135e-05
-1.48526e-05
-1.02063e-05
-1.44396e-05
-8.95375e-06
-1.41276e-05
-7.65433e-06
-1.38881e-05
-6.33763e-06
-1.36845e-05
-5.01377e-06
-1.34765e-05
-3.686e-06
-1.32251e-05
-2.35881e-06
-1.2897e-05
-1.042e-06
-1.24657e-05
2.3973e-07
-1.19202e-05
1.46817e-06
2.61005e-06
-1.12491e-05
-4.63277e-06
2.99535e-06
-8.72822e-06
2.32752e-06
-1.20229e-05
5.25129e-08
-1.44863e-05
-3.04791e-06
-1.61377e-05
-6.21049e-06
-1.70326e-05
-9.05756e-06
-1.72839e-05
-1.13216e-05
-1.7047e-05
-1.28462e-05
-1.64934e-05
-1.35857e-05
-1.57826e-05
-1.36008e-05
-1.50451e-05
-1.30237e-05
-1.43736e-05
-1.20213e-05
-1.38199e-05
-1.07598e-05
-1.33975e-05
-9.37596e-06
-1.30903e-05
-7.96132e-06
-1.28649e-05
-6.56295e-06
-1.26809e-05
-5.19761e-06
-1.24979e-05
-3.8688e-06
-1.22792e-05
-2.57749e-06
-1.1994e-05
-1.32728e-06
-1.16254e-05
-1.29026e-07
-1.11574e-05
1.00074e-06
2.04211e-06
-1.05892e-05
-4.41003e-06
7.40609e-06
-8.33834e-06
6.25634e-06
-1.15201e-05
3.23465e-06
-1.38801e-05
-6.875e-07
-1.54332e-05
-4.65707e-06
-1.62236e-05
-8.26682e-06
-1.63686e-05
-1.11763e-05
-1.60358e-05
-1.31787e-05
-1.5407e-05
-1.42142e-05
-1.46424e-05
-1.43653e-05
-1.38683e-05
-1.37975e-05
-1.31743e-05
-1.27152e-05
-1.26124e-05
-1.13215e-05
-1.21975e-05
-9.79074e-06
-1.19127e-05
-8.24601e-06
-1.17213e-05
-6.75422e-06
-1.15798e-05
-5.33896e-06
-1.14466e-05
-4.00186e-06
-1.1286e-05
-2.73809e-06
-1.107e-05
-1.5433e-06
-1.07816e-05
-4.17366e-07
-1.04128e-05
6.31506e-07
1.59248e-06
-9.96256e-06
-4.04649e-06
1.14527e-05
-7.71362e-06
9.9238e-06
-1.0735e-05
6.25638e-06
-1.29613e-05
1.53911e-06
-1.43768e-05
-3.24121e-06
-1.50314e-05
-7.61196e-06
-1.50569e-05
-1.11506e-05
-1.46391e-05
-1.35963e-05
-1.39702e-05
-1.48829e-05
-1.32027e-05
-1.51326e-05
-1.24474e-05
-1.45527e-05
-1.17799e-05
-1.33825e-05
-1.12475e-05
-1.18538e-05
-1.08677e-05
-1.01705e-05
-1.0627e-05
-8.48653e-06
-1.04896e-05
-6.89156e-06
-1.04102e-05
-5.4183e-06
-1.03458e-05
-4.06614e-06
-1.02611e-05
-2.82278e-06
-1.01295e-05
-1.67492e-06
-9.9355e-06
-6.11606e-07
-9.67384e-06
3.70275e-07
1.26521e-06
-9.34641e-06
-3.53699e-06
1.49904e-05
-6.81504e-06
1.32022e-05
-9.57191e-06
9.01357e-06
-1.16307e-05
3.59821e-06
-1.28829e-05
-1.98879e-06
-1.3395e-05
-7.09959e-06
-1.32968e-05
-1.12485e-05
-1.28192e-05
-1.40736e-05
-1.216e-05
-1.55419e-05
-1.14552e-05
-1.58373e-05
-1.07887e-05
-1.52191e-05
-1.02105e-05
-1.39606e-05
-9.75602e-06
-1.23082e-05
-9.44422e-06
-1.04822e-05
-9.27e-06
-8.66068e-06
-9.20352e-06
-6.95798e-06
-9.20123e-06
-5.42053e-06
-9.21955e-06
-4.04776e-06
-9.22278e-06
-2.81953e-06
-9.1853e-06
-1.71246e-06
-9.09215e-06
-7.04636e-07
-8.94072e-06
2.18459e-07
1.05909e-06
-8.73402e-06
-2.88873e-06
1.7879e-05
-5.64363e-06
1.59573e-05
-8.03448e-06
1.14046e-05
-9.85471e-06
5.41867e-06
-1.09318e-05
-9.11527e-07
-1.13093e-05
-6.72181e-06
-1.11187e-05
-1.1439e-05
-1.06185e-05
-1.45736e-05
-1.00268e-05
-1.61335e-05
-9.45305e-06
-1.64109e-05
-8.94655e-06
-1.57255e-05
-8.52214e-06
-1.43849e-05
-8.19476e-06
-1.26355e-05
-7.98194e-06
-1.0695e-05
-7.89015e-06
-8.75244e-06
-7.90302e-06
-6.94509e-06
-7.9843e-06
-5.33923e-06
-8.09159e-06
-3.94044e-06
-8.18855e-06
-2.72254e-06
-8.24948e-06
-1.6516e-06
-8.25921e-06
-6.9502e-07
-8.21503e-06
1.74751e-07
9.67407e-07
-8.1231e-06
-2.14237e-06
2.00219e-05
-4.2523e-06
1.80675e-05
-6.16176e-06
1.33143e-05
-7.67735e-06
6.93442e-06
-8.55783e-06
-3.08927e-08
-8.82188e-06
-6.45764e-06
-8.6025e-06
-1.16583e-05
-8.14976e-06
-1.50263e-05
-7.68909e-06
-1.65941e-05
-7.30864e-06
-1.67913e-05
-7.02218e-06
-1.60119e-05
-6.80552e-06
-1.46016e-05
-6.64701e-06
-1.2794e-05
-6.55673e-06
-1.07853e-05
-6.55284e-06
-8.75635e-06
-6.63967e-06
-6.85828e-06
-6.79675e-06
-5.18216e-06
-6.98751e-06
-3.7497e-06
-7.17513e-06
-2.53494e-06
-7.33178e-06
-1.49502e-06
-7.44095e-06
-5.85755e-07
-7.49894e-06
2.32354e-07
9.80989e-07
-7.51208e-06
-1.35139e-06
2.13731e-05
-2.72995e-06
1.94461e-05
-4.04447e-06
1.46289e-05
-5.15725e-06
8.04728e-06
-5.81791e-06
6.29822e-07
-6.02401e-06
-6.25149e-06
-5.86238e-06
-1.18199e-05
-5.56312e-06
-1.53255e-05
-5.31277e-06
-1.68444e-05
-5.1786e-06
-1.69255e-05
-5.15143e-06
-1.60391e-05
-5.17513e-06
-1.45779e-05
-5.2116e-06
-1.27576e-05
-5.2571e-06
-1.07398e-05
-5.33595e-06
-8.67758e-06
-5.47644e-06
-6.71787e-06
-5.6843e-06
-4.97437e-06
-5.93728e-06
-3.49677e-06
-6.20028e-06
-2.27199e-06
-6.44186e-06
-1.25355e-06
-6.64138e-06
-3.86456e-07
-6.79061e-06
3.81921e-07
1.08709e-06
-6.89668e-06
-5.90053e-07
2.19635e-05
-1.18873e-06
2.00449e-05
-1.80903e-06
1.52492e-05
-2.36761e-06
8.60583e-06
-2.75962e-06
1.0218e-06
-2.98454e-06
-6.02661e-06
-3.04142e-06
-1.17631e-05
-3.02867e-06
-1.53383e-05
-3.08442e-06
-1.67888e-05
-3.23733e-06
-1.67727e-05
-3.48361e-06
-1.5793e-05
-3.75202e-06
-1.43096e-05
-3.98667e-06
-1.25231e-05
-4.16807e-06
-1.05586e-05
-4.31719e-06
-8.52861e-06
-4.48125e-06
-6.55394e-06
-4.6992e-06
-4.75654e-06
-4.9756e-06
-3.22048e-06
-5.28435e-06
-1.96336e-06
-5.59023e-06
-9.47831e-07
-5.86454e-06
-1.12137e-07
-6.09328e-06
6.10218e-07
1.2697e-06
-6.2756e-06
7.07913e-08
2.18923e-05
2.90526e-07
1.9825e-05
3.64162e-07
1.51754e-05
5.53782e-07
8.4161e-06
5.12911e-07
1.06255e-06
2.60388e-07
-5.77422e-06
-2.26747e-07
-1.12761e-05
-7.05623e-07
-1.48596e-05
-1.16192e-06
-1.63326e-05
-1.63358e-06
-1.63012e-05
-2.14931e-06
-1.52774e-05
-2.64133e-06
-1.38178e-05
-3.0522e-06
-1.21125e-05
-3.35337e-06
-1.02576e-05
-3.55584e-06
-8.32633e-06
-3.71298e-06
-6.39699e-06
-3.89341e-06
-4.57627e-06
-4.14017e-06
-2.97386e-06
-4.44985e-06
-1.65383e-06
-4.78757e-06
-6.10296e-07
-5.11411e-06
2.14144e-07
-5.40354e-06
8.99905e-07
1.51385e-06
-5.64773e-06
7.14294e-07
2.11782e-05
1.5947e-06
1.89445e-05
2.48988e-06
1.42801e-05
3.28562e-06
7.62019e-06
3.55967e-06
7.88307e-07
3.18641e-06
-5.40116e-06
2.31752e-06
-1.04074e-05
1.30483e-06
-1.38471e-05
3.82727e-07
-1.54107e-05
-4.47975e-07
-1.54707e-05
-1.22416e-06
-1.45015e-05
-1.90453e-06
-1.31377e-05
-2.45055e-06
-1.15667e-05
-2.83945e-06
-9.86894e-06
-3.07465e-06
-8.09136e-06
-3.20261e-06
-6.26925e-06
-3.30601e-06
-4.47308e-06
-3.46642e-06
-2.81365e-06
-3.71997e-06
-1.40046e-06
-4.04577e-06
-2.84714e-07
-4.3963e-06
5.64607e-07
-4.72798e-06
1.23107e-06
1.80162e-06