/*--------------------------------*- C++ -*----------------------------------*\
| =========                 |                                                 |
| \\      /  F ield         | OpenFOAM: The Open Source CFD Toolbox           |
|  \\    /   O peration     | Version:  2312                                  |
|   \\  /    A nd           | Website:  www.openfoam.com                      |
|    \\/     M anipulation  |                                                 |
\*---------------------------------------------------------------------------*/
FoamFile
{
    version     2.0;
    format      ascii;
    arch        "LSB;label=32;scalar=64";
    class       volVectorField;
    location    "3.05";
    object      U;
}
// * * * * * * * * * * * * * * * * * * * * * * * * * * * * * * * * * * * * * //

dimensions      [0 1 -1 0 0 0 0];

internalField   nonuniform List<vector> 
2268
(
(0.00143403 -0.00155355 0)
(-0.0137576 0.00346209 0)
(-0.0332141 0.00447737 0)
(-0.0506991 0.00411114 0)
(-0.0643391 0.0029846 0)
(-0.0729032 0.00173087 0)
(-0.0766438 0.000595115 0)
(-0.0762238 -0.000296827 0)
(-0.0725581 -0.000955863 0)
(-0.066276 -0.00154662 0)
(-0.0578871 -0.00205971 0)
(-0.0480682 -0.00238236 0)
(-0.0377012 -0.00245429 0)
(-0.0276827 -0.00230043 0)
(-0.0187554 -0.00197853 0)
(-0.0114617 -0.00153437 0)
(-0.00625909 -0.00100441 0)
(-0.00350675 -0.000480884 0)
(-0.00279301 -0.000173148 0)
(-0.00294801 -8.03758e-05 0)
(-0.00310677 -0.000101412 0)
(-0.00287649 -8.63795e-05 0)
(-0.00446677 -0.0011204 0)
(-0.0102949 0.00758627 0)
(-0.0266883 0.0133427 0)
(-0.0459657 0.0129829 0)
(-0.0615056 0.0108363 0)
(-0.0732635 0.0076025 0)
(-0.0802773 0.00414583 0)
(-0.0827814 0.000996104 0)
(-0.081386 -0.00158035 0)
(-0.0770055 -0.00355786 0)
(-0.0701983 -0.0052284 0)
(-0.0613218 -0.00657487 0)
(-0.0510047 -0.00733164 0)
(-0.0401672 -0.00739726 0)
(-0.0297535 -0.00683157 0)
(-0.0205081 -0.00580265 0)
(-0.0129347 -0.00443935 0)
(-0.00747701 -0.00279059 0)
(-0.00455086 -0.00110328 0)
(-0.00368571 -8.68853e-05 0)
(-0.00355425 0.00023674 0)
(-0.00320629 0.000216188 0)
(-0.002439 0.000277548 0)
(-0.00321285 -0.00223542 0)
(-0.0160482 0.0166154 0)
(-0.0357271 0.0219364 0)
(-0.056092 0.0207062 0)
(-0.0714477 0.0167928 0)
(-0.0824533 0.0114142 0)
(-0.0884291 0.00581074 0)
(-0.0897692 0.000825223 0)
(-0.0872898 -0.00315225 0)
(-0.0820435 -0.00617277 0)
(-0.0745596 -0.00883976 0)
(-0.0650001 -0.0110704 0)
(-0.0539324 -0.0123389 0)
(-0.0423208 -0.0125006 0)
(-0.031178 -0.0115986 0)
(-0.0212998 -0.00990735 0)
(-0.0131379 -0.00764854 0)
(-0.00711674 -0.00488786 0)
(-0.00382348 -0.00205379 0)
(-0.00270899 -0.00049201 0)
(-0.00211009 -0.000205863 0)
(-0.00102109 -0.000500796 0)
(0.000217184 -0.000514671 0)
(0.000462588 -0.00336283 0)
(-0.0201008 0.0310743 0)
(-0.0431893 0.0332824 0)
(-0.0653106 0.0296715 0)
(-0.0812529 0.0233316 0)
(-0.0920156 0.015363 0)
(-0.0971264 0.00728658 0)
(-0.097281 4.81601e-05 0)
(-0.0936363 -0.00524219 0)
(-0.0874849 -0.00929063 0)
(-0.0793472 -0.0129817 0)
(-0.0691703 -0.0161699 0)
(-0.0575103 -0.0180182 0)
(-0.0452177 -0.0183611 0)
(-0.0331988 -0.0170429 0)
(-0.022343 -0.0144624 0)
(-0.0131788 -0.0110757 0)
(-0.00620302 -0.00695675 0)
(-0.00216224 -0.00304649 0)
(-0.000583013 -0.000963633 0)
(0.000552178 -0.000354749 0)
(0.00223874 -0.000472342 0)
(0.00326479 0.000601976 0)
(0.00376726 0.000292672 0)
(-0.0215172 0.0462258 0)
(-0.0470555 0.0452791 0)
(-0.0714658 0.038974 0)
(-0.0889809 0.0299042 0)
(-0.100552 0.0191249 0)
(-0.105636 0.00848041 0)
(-0.104691 -0.000433723 0)
(-0.0992354 -0.00778306 0)
(-0.0916803 -0.01274 0)
(-0.0829022 -0.0175228 0)
(-0.0727015 -0.0219702 0)
(-0.0614181 -0.0245486 0)
(-0.0493053 -0.0251706 0)
(-0.0367886 -0.0233697 0)
(-0.0249118 -0.0199854 0)
(-0.0148881 -0.0157525 0)
(-0.00794927 -0.00966122 0)
(-0.00365328 -0.00346765 0)
(-0.00133971 -0.000953284 0)
(0.000423844 -0.0015193 0)
(0.00235495 -0.00314155 0)
(0.00290411 -0.00350115 0)
(0.00379137 -0.00356018 0)
(-0.0205574 0.0602268 0)
(-0.047243 0.0566144 0)
(-0.0737698 0.0479877 0)
(-0.0925548 0.0358705 0)
(-0.103911 0.0217166 0)
(-0.107093 0.0074126 0)
(-0.104094 -0.0045801 0)
(-0.0976469 -0.012386 0)
(-0.0908484 -0.0180952 0)
(-0.0840955 -0.0244906 0)
(-0.0755398 -0.0297453 0)
(-0.0656411 -0.0319345 0)
(-0.0544169 -0.0316383 0)
(-0.0421375 -0.0287404 0)
(-0.0296758 -0.0247989 0)
(-0.0205476 -0.0206742 0)
(-0.0172857 -0.0156608 0)
(-0.015155 -0.00912745 0)
(-0.0124337 -0.00459296 0)
(-0.0106473 -0.00348673 0)
(-0.0104498 -0.00254734 0)
(-0.00968189 -0.000237214 0)
(-0.00786888 0.00668397 0)
(-0.0183562 0.0730089 0)
(-0.0438554 0.0681392 0)
(-0.0706756 0.058306 0)
(-0.0895312 0.0444912 0)
(-0.101027 0.0287804 0)
(-0.10543 0.0125779 0)
(-0.102279 -0.00239719 0)
(-0.0909517 -0.0119222 0)
(-0.0816468 -0.0172257 0)
(-0.0720907 -0.0229482 0)
(-0.0623515 -0.028016 0)
(-0.0527577 -0.0309438 0)
(-0.0429346 -0.0343839 0)
(-0.0325883 -0.0338994 0)
(-0.0182723 -0.0319003 0)
(-0.0204448 -0.0173447 0)
(-0.059758 -0.00283585 0)
(-0.100806 0.00109424 0)
(-0.123583 0.00106714 0)
(-0.140489 0.000876611 0)
(-0.142833 0.00114971 0)
(-0.114352 -0.00177092 0)
(-0.110773 -0.0148854 0)
(-0.0126511 0.0901464 0)
(-0.0289833 0.0835969 0)
(-0.0487004 0.0703415 0)
(-0.0597416 0.0506312 0)
(-0.0612984 0.0274717 0)
(-0.0505279 0.00382666 0)
(-0.0240977 -0.0153272 0)
(0.000307753 -0.0230982 0)
(0.00365089 -0.0227171 0)
(-0.00773275 -0.0286814 0)
(-0.00961023 -0.0360422 0)
(-0.0103844 -0.0388395 0)
(-0.0193256 -0.0395071 0)
(-0.0344144 -0.0353592 0)
(-0.0442564 -0.0284169 0)
(-0.0947524 0.000203489 0)
(-0.126502 0.0134094 0)
(-0.133626 0.00961637 0)
(-0.14396 0.00735856 0)
(-0.155076 0.00265893 0)
(-0.156596 -0.00645907 0)
(-0.142557 -0.031625 0)
(-0.180906 -0.10777 0)
(-0.0602497 0.0284426 0)
(-0.115499 0.0134832 0)
(-0.146571 0.0029781 0)
(-0.142605 -0.00303452 0)
(-0.122132 -0.00433401 0)
(-0.0985005 -0.00406531 0)
(-0.0786802 -0.00321845 0)
(-0.0655572 -0.000909125 0)
(-0.069646 0.00195505 0)
(-0.0867349 0.00139003 0)
(-0.0991531 -0.00199888 0)
(-0.0982867 -0.00614635 0)
(-0.0844353 -0.00839753 0)
(-0.0642693 -0.00921896 0)
(-0.0425041 -0.00855212 0)
(-0.0236279 -0.00671559 0)
(-0.0109723 -0.00392135 0)
(0.00433306 -0.00039379 0)
(-0.000173504 -0.0031313 0)
(-0.0375529 0.0444138 0)
(-0.0901032 0.0265514 0)
(-0.114692 0.00622432 0)
(-0.108707 -0.0082654 0)
(-0.0883169 -0.0141377 0)
(-0.0619959 -0.0148334 0)
(-0.0383732 -0.0120516 0)
(-0.0174812 -0.00436697 0)
(-0.0130031 0.00909575 0)
(-0.0290649 0.0118765 0)
(-0.0438182 0.00743881 0)
(-0.0499182 -0.000275253 0)
(-0.0513228 -0.00593777 0)
(-0.0473883 -0.010606 0)
(-0.0402904 -0.0111369 0)
(-0.0369815 -0.00913386 0)
(-0.0326644 -0.00750685 0)
(-0.0194667 -0.00528152 0)
(-0.00345069 0.00503247 0)
(-0.0430546 0.072297 0)
(-0.105458 0.0424508 0)
(-0.128339 0.00998215 0)
(-0.120501 -0.0147551 0)
(-0.100102 -0.0239878 0)
(-0.0722369 -0.0259677 0)
(-0.0420935 -0.0223083 0)
(-0.0187659 -0.0120629 0)
(-0.00662703 0.00703418 0)
(-0.0148018 0.0137558 0)
(-0.0305527 0.00789514 0)
(-0.0421075 -0.00331315 0)
(-0.0536376 -0.00894891 0)
(-0.0595445 -0.0131344 0)
(-0.0548447 -0.0119108 0)
(-0.0543616 -0.00988315 0)
(-0.0580291 -0.00975423 0)
(-0.0549752 -0.0125822 0)
(-0.0232521 -0.0128883 0)
(-0.028733 0.117243 0)
(-0.0954276 0.0729175 0)
(-0.162201 0.00795203 0)
(-0.172223 -0.0244887 0)
(-0.15035 -0.0328177 0)
(-0.117643 -0.0372958 0)
(-0.0781305 -0.033666 0)
(-0.046223 -0.0177669 0)
(-0.025466 0.00703588 0)
(-0.0357354 0.0218995 0)
(-0.0868506 0.0198637 0)
(-0.136597 0.0114617 0)
(-0.146839 0.00370115 0)
(-0.110927 -0.00982655 0)
(-0.0603519 -0.0120825 0)
(0.000159067 -0.00223195 0)
(0.00822029 0.00166685 0)
(-0.030218 -0.0228917 0)
(-0.00841955 -0.0343929 0)
(-0.0199849 0.131106 0)
(0.0173736 0.101093 0)
(-0.0214165 0.0481054 0)
(-0.151072 -0.0181273 0)
(-0.24264 -0.0432725 0)
(-0.235659 -0.0644461 0)
(-0.206287 -0.0584129 0)
(-0.180787 -0.0305 0)
(-0.165792 0.00279005 0)
(-0.174521 0.039204 0)
(-0.238669 0.0488585 0)
(-0.272449 0.0200931 0)
(-0.216241 -0.0259752 0)
(-0.137361 -0.052907 0)
(-0.0766239 -0.0574079 0)
(0.00666133 -0.0454859 0)
(0.10419 -0.00142281 0)
(0.0839982 0.00465592 0)
(0.0209011 -0.0264796 0)
(0.0159713 0.12742 0)
(0.0819682 0.0947947 0)
(0.0464581 0.0913128 0)
(-0.108581 0.0586844 0)
(-0.23084 -0.00455151 0)
(-0.261021 -0.0613726 0)
(-0.266153 -0.05857 0)
(-0.264054 -0.0260533 0)
(-0.257639 0.00584623 0)
(-0.241194 0.0428776 0)
(-0.248878 0.0572339 0)
(-0.22868 0.00527885 0)
(-0.163307 -0.0580681 0)
(-0.140742 -0.0709914 0)
(-0.117584 -0.0767868 0)
(-0.0832448 -0.0846385 0)
(0.0229417 -0.0321577 0)
(0.0765666 0.0138966 0)
(0.0536177 0.000948329 0)
(0.0533301 0.0726575 0)
(0.0936195 0.081 0)
(0.0524598 0.126855 0)
(-0.10182 0.109849 0)
(-0.218187 0.0330037 0)
(-0.286358 -0.0473101 0)
(-0.322567 -0.0549174 0)
(-0.332335 -0.0244445 0)
(-0.304892 -0.00259456 0)
(-0.248379 0.0294249 0)
(-0.204661 0.0521422 0)
(-0.157391 -0.00836005 0)
(-0.132567 -0.0643922 0)
(-0.163295 -0.0701186 0)
(-0.170556 -0.0830376 0)
(-0.158529 -0.101069 0)
(-0.114534 -0.0765508 0)
(0.0305314 0.0109175 0)
(0.0289222 0.0178423 0)
(0.00429754 0.0520057 0)
(0.0228372 0.0732685 0)
(-0.0133095 0.173535 0)
(-0.124174 0.152297 0)
(-0.217291 0.0733907 0)
(-0.294516 -0.0188528 0)
(-0.325017 -0.046522 0)
(-0.322461 -0.0328928 0)
(-0.288446 -0.0264965 0)
(-0.229456 -0.008146 0)
(-0.159297 0.0259383 0)
(-0.105275 -0.0177482 0)
(-0.141975 -0.0470047 0)
(-0.203571 -0.053537 0)
(-0.225675 -0.0786651 0)
(-0.227157 -0.111433 0)
(-0.195543 -0.109319 0)
(-0.0886464 -0.0363244 0)
(0.0220009 0.015144 0)
(0.002839 0.0997238 0)
(0.0250618 0.0919454 0)
(0.0344747 0.076508 0)
(0.0433045 0.0510532 0)
(0.046063 0.0205027 0)
(0.0565667 -0.00879276 0)
(0.066809 -0.0259521 0)
(0.0753377 -0.0263764 0)
(0.0829476 -0.0192237 0)
(0.0840402 -0.0148338 0)
(0.0774531 -0.0182382 0)
(0.066287 -0.0229106 0)
(0.0499522 -0.0216083 0)
(0.0278598 -0.0158465 0)
(0.0159866 -0.0149198 0)
(-0.0198578 0.0407224 0)
(-0.0610355 0.0395823 0)
(-0.0739546 0.0162241 0)
(-0.10436 0.0221249 0)
(-0.127233 0.017885 0)
(-0.145585 0.00482406 0)
(-0.177323 -0.0300186 0)
(-0.249338 -0.0975693 0)
(-0.000255031 0.0722287 0)
(0.0224843 0.0630277 0)
(0.0368976 0.0566816 0)
(0.054979 0.0441701 0)
(0.0736543 0.0154457 0)
(0.0933121 -0.0143385 0)
(0.101258 -0.0327367 0)
(0.107663 -0.0352649 0)
(0.116435 -0.0286252 0)
(0.119331 -0.0229307 0)
(0.113098 -0.022505 0)
(0.0986703 -0.0202055 0)
(0.0773048 -0.0100639 0)
(0.0552652 0.00139013 0)
(0.0323585 0.00977756 0)
(0.00678966 0.0541848 0)
(0.0111402 0.0483174 0)
(-0.00182186 0.0425552 0)
(-0.0430091 0.0472721 0)
(-0.0671959 0.0423159 0)
(-0.0917555 0.0430534 0)
(-0.143455 0.0510848 0)
(-0.297907 0.0167285 0)
(0.00323863 0.057787 0)
(0.0343629 0.0388104 0)
(0.0541982 0.0255471 0)
(0.0871056 0.0037193 0)
(0.115746 -0.0182927 0)
(0.125109 -0.0267005 0)
(0.116646 -0.0392646 0)
(0.107676 -0.0485429 0)
(0.117155 -0.0397696 0)
(0.124738 -0.0180573 0)
(0.113783 -0.00247965 0)
(0.089643 0.0101108 0)
(0.0622203 0.0228118 0)
(0.0331941 0.031954 0)
(-0.0104459 0.0404005 0)
(-0.0329704 0.0632548 0)
(-0.0487649 0.0627117 0)
(-0.0874223 0.0856115 0)
(-0.120911 0.086292 0)
(-0.153553 0.0769749 0)
(-0.183736 0.0872104 0)
(-0.213384 0.132861 0)
(-0.266395 0.140352 0)
(0.020086 0.0400307 0)
(0.0518943 0.0230432 0)
(0.0785333 0.00705107 0)
(0.104066 -0.0108311 0)
(0.11807 -0.0170323 0)
(0.120895 -0.00590572 0)
(0.112096 0.000234934 0)
(0.0801399 -0.0360135 0)
(0.0747101 -0.0452239 0)
(0.0707207 -0.00923318 0)
(0.0428153 0.0178855 0)
(0.0197726 0.0324304 0)
(-0.00377343 0.0510526 0)
(-0.0354117 0.0724948 0)
(-0.072219 0.0825853 0)
(-0.0966411 0.0897889 0)
(-0.11799 0.0963134 0)
(-0.130915 0.107615 0)
(-0.138075 0.105453 0)
(-0.148319 0.10026 0)
(-0.15905 0.108319 0)
(-0.166131 0.148577 0)
(-0.174512 0.182719 0)
(0.0111938 -0.0173815 0)
(0.0282303 -0.0212809 0)
(0.0282009 -0.0272757 0)
(0.0255694 -0.0336904 0)
(0.0299438 -0.0415149 0)
(0.0403351 -0.0336438 0)
(0.0672195 -0.00216977 0)
(0.027349 -0.0162749 0)
(-0.00617811 -0.0253802 0)
(-0.0235241 0.0280725 0)
(-0.0245465 0.036825 0)
(-0.0216049 0.0498358 0)
(-0.0216086 0.0712995 0)
(-0.0244587 0.0928486 0)
(-0.0319045 0.102406 0)
(-0.0424973 0.106298 0)
(-0.0578646 0.108682 0)
(-0.0750318 0.112678 0)
(-0.0863469 0.110885 0)
(-0.0980737 0.107933 0)
(-0.109223 0.111758 0)
(-0.110845 0.136339 0)
(-0.102206 0.168367 0)
(-0.0159461 -0.00793681 0)
(-0.0122479 0.00323351 0)
(-0.0358521 -0.00159038 0)
(-0.037708 -0.0195402 0)
(-0.0469437 -0.0394247 0)
(-0.0710773 -0.0237957 0)
(-0.0338519 0.0289214 0)
(-0.0255396 0.0247709 0)
(-0.0249728 -0.00844795 0)
(0.00319489 0.00886916 0)
(0.0331919 0.0145174 0)
(0.0538413 0.0324153 0)
(0.0652792 0.0566476 0)
(0.0694616 0.0832245 0)
(0.0674392 0.104421 0)
(0.059443 0.118637 0)
(0.0452521 0.128977 0)
(0.0252271 0.135084 0)
(0.00654719 0.132158 0)
(-0.0113184 0.128746 0)
(-0.0309324 0.128372 0)
(-0.0479648 0.136194 0)
(-0.0464054 0.150152 0)
(-0.0272982 0.0145308 0)
(-0.120882 0.0124366 0)
(-0.208965 0.000606041 0)
(-0.213732 -0.0134205 0)
(-0.193778 -0.0263681 0)
(-0.133187 -0.0398475 0)
(-0.0289044 -0.0794224 0)
(0.0728589 -0.015134 0)
(0.0916343 -0.0423624 0)
(0.0794184 -0.0423212 0)
(0.0842174 -0.0214552 0)
(0.0988958 0.0053866 0)
(0.11099 0.0374704 0)
(0.120316 0.0674287 0)
(0.125632 0.0894909 0)
(0.124676 0.104939 0)
(0.116368 0.120074 0)
(0.101185 0.131793 0)
(0.0840548 0.134572 0)
(0.0630782 0.138352 0)
(0.0419792 0.142634 0)
(0.0249503 0.144281 0)
(0.0196845 0.140052 0)
(0.0425411 0.0945675 0)
(0.0760668 0.124048 0)
(0.159837 0.103057 0)
(0.248172 -0.00878012 0)
(0.27125 -0.104616 0)
(0.294196 -0.144536 0)
(0.31036 -0.163455 0)
(0.376895 -0.127825 0)
(0.453812 -0.0190395 0)
(0.510139 0.0169747 0)
(0.50122 0.0233473 0)
(0.361243 0.0415436 0)
(0.157141 0.09585 0)
(-0.00946351 0.116292 0)
(-0.026418 0.114801 0)
(0.0260931 0.125616 0)
(0.0529459 0.144031 0)
(0.0634361 0.156522 0)
(0.0604504 0.155443 0)
(0.0578948 0.15484 0)
(0.0598316 0.156614 0)
(0.0625759 0.153914 0)
(0.0653412 0.143395 0)
(0.062089 -0.0487829 0)
(0.164348 -0.0920474 0)
(0.270209 -0.104906 0)
(0.347672 -0.115592 0)
(0.393979 -0.129519 0)
(0.416756 -0.141739 0)
(0.419735 -0.152153 0)
(0.395553 -0.167054 0)
(0.359624 -0.123149 0)
(0.333979 -0.0203434 0)
(0.327423 0.104083 0)
(0.311111 0.204993 0)
(0.284058 0.267476 0)
(0.253067 0.236738 0)
(0.206198 0.13422 0)
(0.170328 0.0910338 0)
(0.114218 0.120689 0)
(0.0969709 0.16048 0)
(0.0373051 0.188235 0)
(-0.0290089 0.167303 0)
(-0.0031833 0.155478 0)
(0.0244383 0.149723 0)
(0.0353943 0.139025 0)
(0.0724809 -0.153035 0)
(0.156612 -0.145187 0)
(0.238539 -0.141225 0)
(0.302868 -0.148658 0)
(0.346564 -0.158011 0)
(0.372967 -0.154504 0)
(0.382711 -0.134055 0)
(0.366267 -0.0978813 0)
(0.328208 -0.0410323 0)
(0.294414 0.0315723 0)
(0.291838 0.107299 0)
(0.315543 0.178314 0)
(0.356539 0.222177 0)
(0.406267 0.213324 0)
(0.431658 0.16709 0)
(0.439454 0.161599 0)
(0.436779 0.176402 0)
(0.419169 0.199969 0)
(0.390037 0.280121 0)
(0.320926 0.240481 0)
(0.240056 0.159892 0)
(0.0108342 0.159413 0)
(-0.0171106 0.122915 0)
(0.0494635 -0.260777 0)
(0.120461 -0.237357 0)
(0.185462 -0.217813 0)
(0.237439 -0.203894 0)
(0.272364 -0.192651 0)
(0.291728 -0.174108 0)
(0.297877 -0.139362 0)
(0.293535 -0.0909388 0)
(0.285072 -0.0368379 0)
(0.285211 0.0212397 0)
(0.298876 0.0784059 0)
(0.332804 0.126613 0)
(0.387255 0.153026 0)
(0.448933 0.151417 0)
(0.499004 0.131782 0)
(0.531926 0.131783 0)
(0.553314 0.157278 0)
(0.561847 0.202651 0)
(0.562777 0.263773 0)
(0.544055 0.298284 0)
(0.522973 0.297297 0)
(0.472539 0.279732 0)
(0.476744 0.162235 0)
(0.0274712 -0.32662 0)
(0.0795774 -0.296125 0)
(0.122418 -0.266098 0)
(0.158086 -0.239957 0)
(0.182499 -0.215049 0)
(0.196806 -0.183352 0)
(0.203497 -0.139203 0)
(0.206689 -0.0872789 0)
(0.210631 -0.035973 0)
(0.222797 0.0113668 0)
(0.251062 0.0518595 0)
(0.292694 0.0773846 0)
(0.343184 0.0857863 0)
(0.396788 0.0847815 0)
(0.446363 0.0828911 0)
(0.488803 0.0960493 0)
(0.525884 0.133238 0)
(0.559166 0.188965 0)
(0.590534 0.250287 0)
(0.61917 0.29192 0)
(0.645012 0.300287 0)
(0.653912 0.297295 0)
(0.65872 0.255925 0)
(0.0114024 -0.365304 0)
(0.0418259 -0.33149 0)
(0.0610232 -0.294408 0)
(0.0784483 -0.261145 0)
(0.088652 -0.22995 0)
(0.0951651 -0.192246 0)
(0.099097 -0.145952 0)
(0.102696 -0.0952294 0)
(0.109078 -0.050752 0)
(0.1224 -0.0186395 0)
(0.145992 0.00951946 0)
(0.177033 0.0342892 0)
(0.208601 0.043741 0)
(0.24552 0.0444774 0)
(0.286066 0.0429445 0)
(0.331755 0.0542101 0)
(0.38432 0.0897475 0)
(0.43943 0.141857 0)
(0.496752 0.201628 0)
(0.553808 0.25287 0)
(0.599774 0.275514 0)
(0.629568 0.269368 0)
(0.646352 0.237979 0)
(-0.000843852 -0.379759 0)
(0.00834164 -0.343705 0)
(0.00577119 -0.301865 0)
(0.0054641 -0.264728 0)
(-0.000278748 -0.231331 0)
(-0.00646847 -0.191464 0)
(-0.0141989 -0.14462 0)
(-0.019768 -0.0946248 0)
(-0.023283 -0.0519319 0)
(-0.0237115 -0.0232726 0)
(-0.0175478 -0.00260047 0)
(0.00658664 0.0215589 0)
(0.0275572 0.0131807 0)
(0.051811 0.00525485 0)
(0.079168 0.00104749 0)
(0.108684 0.00322096 0)
(0.156606 0.0292279 0)
(0.229332 0.0847937 0)
(0.306047 0.143377 0)
(0.379969 0.192202 0)
(0.444778 0.220457 0)
(0.494669 0.229712 0)
(0.527 0.222073 0)
(-0.0108469 -0.372812 0)
(-0.0203343 -0.334744 0)
(-0.0402997 -0.290201 0)
(-0.0568352 -0.250699 0)
(-0.0778937 -0.214792 0)
(-0.0995227 -0.172234 0)
(-0.121565 -0.124622 0)
(-0.140678 -0.0755798 0)
(-0.153045 -0.0371555 0)
(-0.153839 -0.0231333 0)
(-0.142216 -0.019171 0)
(-0.123496 -0.00904584 0)
(-0.107362 -0.00593213 0)
(-0.0979603 -0.00533078 0)
(-0.0869193 -0.0143488 0)
(-0.0697097 -0.0237786 0)
(-0.0449915 -0.020777 0)
(-0.000488951 0.00499942 0)
(0.0769615 0.0518398 0)
(0.158939 0.109761 0)
(0.231952 0.152491 0)
(0.293739 0.179236 0)
(0.341762 0.193612 0)
(-0.0188385 -0.349257 0)
(-0.0418708 -0.310195 0)
(-0.0735918 -0.264926 0)
(-0.101567 -0.223842 0)
(-0.132863 -0.18526 0)
(-0.163597 -0.141579 0)
(-0.190496 -0.09646 0)
(-0.207968 -0.0578576 0)
(-0.211351 -0.0370836 0)
(-0.204359 -0.0378156 0)
(-0.194743 -0.0358745 0)
(-0.185623 -0.0197958 0)
(-0.17702 -0.0111323 0)
(-0.167587 -0.0151265 0)
(-0.156097 -0.0326986 0)
(-0.14287 -0.0444086 0)
(-0.129185 -0.0427329 0)
(-0.114211 -0.0325887 0)
(-0.0920772 -0.0121808 0)
(-0.040291 0.0331857 0)
(0.023707 0.0838728 0)
(0.0859205 0.124941 0)
(0.14179 0.160023 0)
(-0.0237608 -0.314989 0)
(-0.0538286 -0.276785 0)
(-0.090616 -0.232758 0)
(-0.121604 -0.192208 0)
(-0.152169 -0.154522 0)
(-0.177894 -0.116829 0)
(-0.194514 -0.0823314 0)
(-0.199796 -0.05688 0)
(-0.196736 -0.0441054 0)
(-0.193366 -0.0427307 0)
(-0.192778 -0.0389329 0)
(-0.188779 -0.0283078 0)
(-0.178856 -0.0229301 0)
(-0.167423 -0.0268692 0)
(-0.160507 -0.0409785 0)
(-0.159653 -0.0507199 0)
(-0.161061 -0.0479281 0)
(-0.162925 -0.0387824 0)
(-0.162345 -0.0248146 0)
(-0.15115 -0.00188326 0)
(-0.119852 0.0320709 0)
(-0.0793767 0.0709226 0)
(-0.0340295 0.113119 0)
(-0.0254989 -0.275968 0)
(-0.0569891 -0.240791 0)
(-0.0930526 -0.200802 0)
(-0.120495 -0.164371 0)
(-0.143786 -0.131523 0)
(-0.160277 -0.101682 0)
(-0.168615 -0.0761581 0)
(-0.169571 -0.0576839 0)
(-0.166657 -0.0473484 0)
(-0.163898 -0.0433908 0)
(-0.162059 -0.0401639 0)
(-0.158522 -0.0351891 0)
(-0.152288 -0.0320556 0)
(-0.146046 -0.0335157 0)
(-0.144454 -0.0398683 0)
(-0.149435 -0.0444287 0)
(-0.157082 -0.0414186 0)
(-0.163768 -0.0342781 0)
(-0.169034 -0.0249816 0)
(-0.171069 -0.0109283 0)
(-0.165251 0.00987576 0)
(-0.148886 0.0381453 0)
(-0.125077 0.071604 0)
(-0.0250792 -0.236795 0)
(-0.0548877 -0.206236 0)
(-0.087843 -0.17229 0)
(-0.110609 -0.142067 0)
(-0.127733 -0.115356 0)
(-0.138113 -0.0922353 0)
(-0.142231 -0.0732833 0)
(-0.141422 -0.0594731 0)
(-0.138148 -0.050902 0)
(-0.13478 -0.0461027 0)
(-0.132025 -0.0425649 0)
(-0.129062 -0.0391335 0)
(-0.125583 -0.0368044 0)
(-0.122916 -0.0365525 0)
(-0.123213 -0.0378833 0)
(-0.127169 -0.0380155 0)
(-0.133121 -0.0346283 0)
(-0.139509 -0.0282497 0)
(-0.145803 -0.0195402 0)
(-0.150993 -0.00805667 0)
(-0.153208 0.00674841 0)
(-0.150329 0.025722 0)
(-0.141467 0.0490896 0)
(-0.023722 -0.199722 0)
(-0.0509809 -0.174372 0)
(-0.0808957 -0.147189 0)
(-0.100319 -0.123849 0)
(-0.11392 -0.103584 0)
(-0.121263 -0.0863758 0)
(-0.123524 -0.0723966 0)
(-0.122114 -0.0618341 0)
(-0.118826 -0.0544692 0)
(-0.115225 -0.0494054 0)
(-0.112029 -0.0454492 0)
(-0.109202 -0.0420045 0)
(-0.10676 -0.0392963 0)
(-0.105323 -0.0375418 0)
(-0.105782 -0.0361975 0)
(-0.108362 -0.0338195 0)
(-0.112325 -0.0292942 0)
(-0.116847 -0.0226148 0)
(-0.121423 -0.0139567 0)
(-0.125428 -0.00339008 0)
(-0.128101 0.00896123 0)
(-0.128602 0.0232833 0)
(-0.125503 0.0400702 0)
(-0.0222034 -0.16532 0)
(-0.0471136 -0.145067 0)
(-0.0747554 -0.124518 0)
(-0.0922907 -0.107876 0)
(-0.104387 -0.0937378 0)
(-0.110795 -0.0817682 0)
(-0.112808 -0.0718679 0)
(-0.111707 -0.0639565 0)
(-0.108871 -0.0577668 0)
(-0.10545 -0.0528045 0)
(-0.102133 -0.0485445 0)
(-0.0992049 -0.0447131 0)
(-0.0968766 -0.041311 0)
(-0.0955048 -0.038283 0)
(-0.0954546 -0.0352112 0)
(-0.0967494 -0.0313288 0)
(-0.0989858 -0.0260191 0)
(-0.101645 -0.0191042 0)
(-0.104268 -0.0105934 0)
(-0.106343 -0.00061668 0)
(-0.107522 0.0104709 0)
(-0.107451 0.0225174 0)
(-0.105336 0.0357163 0)
(-0.0208472 -0.13337 0)
(-0.043884 -0.117806 0)
(-0.0699216 -0.103414 0)
(-0.0864584 -0.092971 0)
(-0.0980816 -0.084481 0)
(-0.104545 -0.077261 0)
(-0.107048 -0.0709872 0)
(-0.106678 -0.0654822 0)
(-0.104534 -0.0605621 0)
(-0.101533 -0.0560155 0)
(-0.0983189 -0.0516711 0)
(-0.0953076 -0.0474604 0)
(-0.0928025 -0.0433817 0)
(-0.0910745 -0.0393563 0)
(-0.0903048 -0.0351116 0)
(-0.0904604 -0.0302236 0)
(-0.0912798 -0.0243296 0)
(-0.092394 -0.0172533 0)
(-0.0934103 -0.00896425 0)
(-0.0939181 0.000415075 0)
(-0.0936393 0.0104873 0)
(-0.0923377 0.0209893 0)
(-0.0897714 0.0319342 0)
(-0.0197389 -0.103431 0)
(-0.0413593 -0.0920914 0)
(-0.0662465 -0.0833173 0)
(-0.0822181 -0.0785183 0)
(-0.0937329 -0.0751753 0)
(-0.100498 -0.0723063 0)
(-0.10356 -0.0694187 0)
(-0.103834 -0.0662854 0)
(-0.102248 -0.062803 0)
(-0.0996057 -0.0589462 0)
(-0.0965391 -0.054757 0)
(-0.0935089 -0.0503227 0)
(-0.0908475 -0.0457219 0)
(-0.0887863 -0.0409504 0)
(-0.0874374 -0.0358781 0)
(-0.0867581 -0.0302852 0)
(-0.0865576 -0.0239651 0)
(-0.0865527 -0.0167961 0)
(-0.0864135 -0.008762 0)
(-0.0858096 1.92295e-05 0)
(-0.0844834 0.00924831 0)
(-0.0822694 0.0185839 0)
(-0.0791927 0.0279307 0)
(-0.0188643 -0.075052 0)
(-0.0394397 -0.0675324 0)
(-0.0634787 -0.0639249 0)
(-0.079083 -0.0643328 0)
(-0.0905426 -0.0657796 0)
(-0.0975081 -0.0670198 0)
(-0.100884 -0.0674104 0)
(-0.101466 -0.0666704 0)
(-0.100101 -0.0647403 0)
(-0.0975666 -0.0617187 0)
(-0.0945136 -0.0578067 0)
(-0.0914346 -0.0532423 0)
(-0.0886676 -0.0482287 0)
(-0.0864098 -0.0428774 0)
(-0.0847275 -0.0371886 0)
(-0.0835638 -0.0310822 0)
(-0.0827566 -0.0244608 0)
(-0.082072 -0.017263 0)
(-0.0812353 -0.0094962 0)
(-0.0799567 -0.00126998 0)
(-0.0780156 0.00719879 0)
(-0.0753158 0.0155804 0)
(-0.0719907 0.0237344 0)
(-0.0181785 -0.0478711 0)
(-0.0379855 -0.0438374 0)
(-0.0613798 -0.0450436 0)
(-0.0767161 -0.0503409 0)
(-0.0880862 -0.056355 0)
(-0.0950832 -0.0615997 0)
(-0.0984875 -0.065269 0)
(-0.0990286 -0.0669904 0)
(-0.0975359 -0.0666987 0)
(-0.0948134 -0.0645738 0)
(-0.0915586 -0.0609597 0)
(-0.088305 -0.0562627 0)
(-0.0853999 -0.05085 0)
(-0.0830147 -0.0449781 0)
(-0.0811747 -0.0387728 0)
(-0.079794 -0.0322592 0)
(-0.0787091 -0.0254174 0)
(-0.077707 -0.0182322 0)
(-0.076549 -0.0107276 0)
(-0.0749873 -0.00299454 0)
(-0.0728287 0.00479044 0)
(-0.0700244 0.0123696 0)
(-0.0667399 0.01959 0)
(-0.0176131 -0.021706 0)
(-0.0368238 -0.0208639 0)
(-0.0596746 -0.0265876 0)
(-0.0747508 -0.0365553 0)
(-0.0859473 -0.0470225 0)
(-0.0928014 -0.0562687 0)
(-0.095995 -0.0632878 0)
(-0.0962322 -0.0675616 0)
(-0.0943647 -0.0689723 0)
(-0.0912445 -0.0677559 0)
(-0.0876219 -0.0643968 0)
(-0.0840735 -0.0594919 0)
(-0.0809662 -0.0536075 0)
(-0.0784615 -0.0471759 0)
(-0.0765525 -0.0404564 0)
(-0.0751189 -0.0335638 0)
(-0.0739777 -0.0265319 0)
(-0.0729172 -0.0193726 0)
(-0.0717182 -0.0121133 0)
(-0.0701666 -0.004821 0)
(-0.0680896 0.00237423 0)
(-0.0654614 0.00927414 0)
(-0.0624463 0.0157503 0)
(-0.017047 0.00355974 0)
(-0.0356713 0.00141463 0)
(-0.0579599 -0.00864053 0)
(-0.0726565 -0.0230759 0)
(-0.0835108 -0.0379364 0)
(-0.0900215 -0.0512319 0)
(-0.0928005 -0.0616895 0)
(-0.0925654 -0.0685892 0)
(-0.0902162 -0.0717286 0)
(-0.0866478 -0.0713949 0)
(-0.0826389 -0.06822 0)
(-0.0787874 -0.0630043 0)
(-0.0754776 -0.0565354 0)
(-0.0728758 -0.0494472 0)
(-0.0709598 -0.0421494 0)
(-0.0695811 -0.0348455 0)
(-0.0685316 -0.0276082 0)
(-0.0675893 -0.0204576 0)
(-0.0665416 -0.0134096 0)
(-0.0651974 -0.0065004 0)
(-0.0634107 0.000188689 0)
(-0.061155 0.00652463 0)
(-0.0585638 0.0123978 0)
(-0.0162213 0.0284329 0)
(-0.0339584 0.0234322 0)
(-0.0555616 0.00888997 0)
(-0.0697213 -0.0100799 0)
(-0.0800057 -0.0292943 0)
(-0.0859475 -0.0466878 0)
(-0.088135 -0.0606303 0)
(-0.0873417 -0.0701555 0)
(-0.0845376 -0.0749696 0)
(-0.0806385 -0.0754396 0)
(-0.0764019 -0.0723621 0)
(-0.0723989 -0.0667421 0)
(-0.0690067 -0.0595854 0)
(-0.0664019 -0.0517362 0)
(-0.0645675 -0.0437718 0)
(-0.0633434 -0.0359943 0)
(-0.0625016 -0.0285097 0)
(-0.0618066 -0.0213317 0)
(-0.0610459 -0.0144516 0)
(-0.0600446 -0.00786736 0)
(-0.0586731 -0.00160688 0)
(-0.0568901 0.0042615 0)
(-0.0548147 0.00965044 0)
(-0.0148827 0.0513706 0)
(-0.0311391 0.0440686 0)
(-0.051737 0.0257934 0)
(-0.065211 0.00230967 0)
(-0.0747083 -0.0213076 0)
(-0.0798666 -0.0428134 0)
(-0.0813353 -0.0602046 0)
(-0.0799747 -0.0722341 0)
(-0.0768522 -0.0785496 0)
(-0.0728722 -0.079668 0)
(-0.0687111 -0.0765837 0)
(-0.0648477 -0.0704974 0)
(-0.0616079 -0.0625989 0)
(-0.0591707 -0.0539222 0)
(-0.0575446 -0.0452184 0)
(-0.0565836 -0.0369042 0)
(-0.0560544 -0.0291251 0)
(-0.0557103 -0.021881 0)
(-0.0553359 -0.0151261 0)
(-0.0547663 -0.0088129 0)
(-0.0538868 -0.0029118 0)
(-0.0526392 0.00256167 0)
(-0.0511158 0.00755849 0)
(-0.0130919 0.0718659 0)
(-0.027122 0.0628163 0)
(-0.0461302 0.0414151 0)
(-0.058496 0.0139852 0)
(-0.0671436 -0.0141444 0)
(-0.0713783 -0.0397135 0)
(-0.0720934 -0.0604521 0)
(-0.0702283 -0.0747169 0)
(-0.0670014 -0.0822197 0)
(-0.0632664 -0.0837432 0)
(-0.0595628 -0.0805258 0)
(-0.0562087 -0.0739523 0)
(-0.053424 -0.0653327 0)
(-0.0513682 -0.0558341 0)
(-0.0500902 -0.0463645 0)
(-0.0494913 -0.0374713 0)
(-0.0493585 -0.0293585 0)
(-0.0494431 -0.0220158 0)
(-0.0495255 -0.0153539 0)
(-0.0494451 -0.00927316 0)
(-0.0490997 -0.00368604 0)
(-0.0484168 0.00145131 0)
(-0.0474464 0.00612852 0)
(-0.0109391 0.0892885 0)
(-0.0219527 0.0791342 0)
(-0.038734 0.0553531 0)
(-0.0494706 0.0245059 0)
(-0.0571373 -0.00787362 0)
(-0.0604056 -0.0373729 0)
(-0.0604838 -0.061306 0)
(-0.0583081 -0.0774323 0)
(-0.0552517 -0.0856783 0)
(-0.0521063 -0.0872839 0)
(-0.0492466 -0.0837853 0)
(-0.0467765 -0.0767455 0)
(-0.0447586 -0.0675121 0)
(-0.0432981 -0.0572929 0)
(-0.0424846 -0.0471012 0)
(-0.0423039 -0.0376208 0)
(-0.0426029 -0.0291457 0)
(-0.0431505 -0.0216769 0)
(-0.0437235 -0.0150833 0)
(-0.0441604 -0.00920889 0)
(-0.0443644 -0.0039069 0)
(-0.0442469 0.000931147 0)
(-0.0438122 0.00533686 0)
(-0.0086125 0.102961 0)
(-0.0159139 0.0923794 0)
(-0.0297851 0.0670683 0)
(-0.0383408 0.0335746 0)
(-0.0448559 -0.00254835 0)
(-0.0471429 -0.0357018 0)
(-0.0468602 -0.0625057 0)
(-0.0447581 -0.0800937 0)
(-0.04225 -0.088597 0)
(-0.0400274 -0.0899244 0)
(-0.0383391 -0.0859892 0)
(-0.0370622 -0.0785394 0)
(-0.0360748 -0.0688795 0)
(-0.0353887 -0.058147 0)
(-0.0351105 -0.0473692 0)
(-0.0353352 -0.0373421 0)
(-0.0360222 -0.0284867 0)
(-0.0369966 -0.0208587 0)
(-0.0380394 -0.0143049 0)
(-0.0389801 -0.00861382 0)
(-0.039718 -0.00357687 0)
(-0.0401459 0.000980184 0)
(-0.0402131 0.00514182 0)
(-0.00627203 0.112494 0)
(-0.00940925 0.101972 0)
(-0.0197881 0.0759679 0)
(-0.0254929 0.0407991 0)
(-0.0305541 0.00176097 0)
(-0.0319559 -0.0344862 0)
(-0.0317938 -0.0636584 0)
(-0.0303239 -0.0822402 0)
(-0.0288824 -0.090593 0)
(-0.0279177 -0.091353 0)
(-0.0276306 -0.0868606 0)
(-0.0277301 -0.0790854 0)
(-0.0279339 -0.0692384 0)
(-0.0281378 -0.0582917 0)
(-0.0284176 -0.0471701 0)
(-0.0289672 -0.0367078 0)
(-0.0299064 -0.0274689 0)
(-0.0311778 -0.0196311 0)
(-0.0325954 -0.0130671 0)
(-0.0339744 -0.00752413 0)
(-0.0351954 -0.00273261 0)
(-0.0361174 0.00155247 0)
(-0.0366362 0.00547879 0)
(-0.00411391 0.11784 0)
(-0.00298935 0.107502 0)
(-0.00943308 0.0814523 0)
(-0.0114298 0.0455563 0)
(-0.014482 0.00476659 0)
(-0.015158 -0.0334135 0)
(-0.0159008 -0.064154 0)
(-0.0159 -0.0832744 0)
(-0.0161533 -0.0912105 0)
(-0.0167647 -0.0913319 0)
(-0.0179977 -0.0862625 0)
(-0.0195005 -0.0782798 0)
(-0.0209093 -0.068498 0)
(-0.0220231 -0.0576811 0)
(-0.0228409 -0.0465518 0)
(-0.0235985 -0.0358611 0)
(-0.0245823 -0.0262745 0)
(-0.0259239 -0.0181543 0)
(-0.0275321 -0.0114871 0)
(-0.0292198 -0.00602265 0)
(-0.0308319 -0.0014381 0)
(-0.0321791 0.00258569 0)
(-0.0330834 0.00627302 0)
(-0.00224856 0.119355 0)
(0.00283567 0.108855 0)
(0.000387045 0.0834502 0)
(0.00299674 0.0472451 0)
(0.00283775 0.00612341 0)
(0.00272542 -0.0320361 0)
(0.000255792 -0.0629146 0)
(-0.00225941 -0.082281 0)
(-0.00493715 -0.0899398 0)
(-0.007412 -0.0896634 0)
(-0.0102037 -0.0841755 0)
(-0.0130064 -0.0761732 0)
(-0.0154889 -0.066705 0)
(-0.017411 -0.0563475 0)
(-0.0186977 -0.0455872 0)
(-0.0195508 -0.0349719 0)
(-0.0203601 -0.0251534 0)
(-0.0214797 -0.0166812 0)
(-0.0230054 -0.00976343 0)
(-0.0247983 -0.0042484 0)
(-0.0266617 0.000208693 0)
(-0.0283305 0.00400088 0)
(-0.0295401 0.00744746 0)
(-0.000657789 0.117317 0)
(0.00781717 0.105835 0)
(0.00933239 0.0807953 0)
(0.0160438 0.0443999 0)
(0.0191282 0.00548171 0)
(0.0192596 -0.0296155 0)
(0.0154875 -0.0584267 0)
(0.0100218 -0.0778452 0)
(0.00442138 -0.0861604 0)
(-0.000274555 -0.0861124 0)
(-0.00468589 -0.0806199 0)
(-0.00861644 -0.0729252 0)
(-0.0119512 -0.0640373 0)
(-0.0144722 -0.054419 0)
(-0.016099 -0.0443692 0)
(-0.0169604 -0.034182 0)
(-0.0174422 -0.0243539 0)
(-0.0180612 -0.015522 0)
(-0.019175 -0.00817373 0)
(-0.0207996 -0.00240256 0)
(-0.0227215 0.00207492 0)
(-0.0246004 0.00569909 0)
(-0.0260338 0.00890252 0)