/*--------------------------------*- C++ -*----------------------------------*\
| =========                 |                                                 |
| \\      /  F ield         | OpenFOAM: The Open Source CFD Toolbox           |
|  \\    /   O peration     | Version:  2312                                  |
|   \\  /    A nd           | Website:  www.openfoam.com                      |
|    \\/     M anipulation  |                                                 |
\*---------------------------------------------------------------------------*/
FoamFile
{
    version     2.0;
    format      ascii;
    arch        "LSB;label=32;scalar=64";
    class       volScalarField;
    location    "5.2";
    object      alphas;
}
// * * * * * * * * * * * * * * * * * * * * * * * * * * * * * * * * * * * * * //

dimensions      [0 0 0 0 0 0 0];

internalField   nonuniform List<scalar> 
2268
(
2
2
2
2
2
2
2
2
2
2
2
2
2
2
2
2
2
2
2
1.99998
1.99996
1.99996
1.99996
2
2
2
2
2
2
2
2
2
2
2
2
2
2
2
2
2
2
2
2
1.99999
1.99998
1.99999
2
2
2
2
2
2
2
2
2
2
2
2
2
2
2
2
2
2
2
2
2
2
2
2
2
2
2
2
2
2
2
2
2
2
2
2
2
1.99998
2.00001
2
2
2
2
2
2
2
2
2
2
2
2
2
2
1.99999
1.99997
1.99998
1.99995
1.99976
1.9997
1.99927
1.99534
1.98789
1.98134
1.97426
1.97204
1.97289
1.96947
1.96734
1.96339
2
1.99995
1.99971
2.00006
2.00024
2.00012
1.99999
1.98572
1.87958
1.73875
1.58445
1.43293
1.28806
1.12916
1.01593
0.966272
0.998071
1.00911
0.987108
0.957811
0.927897
0.892588
0.80663
1.99689
1.99641
1.9677
1.87532
1.70952
1.44437
1.09554
0.736263
0.458705
0.273268
0.146114
0.060312
0.00516086
0.000330589
0.000473637
0.00468893
0.0284276
0.0641393
0.0814222
0.07772
0.0688196
0.0785862
0.0906436
1.01944
0.903723
0.720346
0.507295
0.29188
0.121974
0.0295073
0.00157158
0.000735646
0.000475736
0.000463405
0.000467772
0.000514659
0.000559322
0.000517698
0.000445847
0.000392571
0.000379672
0.000333381
0.000323807
0.000318019
0.000297556
0.0682734
1.95128
1.95671
1.97057
1.97331
1.97085
1.96807
1.96478
1.96083
1.95953
1.95852
1.95775
1.95774
1.95917
1.96352
1.9659
1.96608
1.9678
1.96957
1.96971
1.95871
1.93709
1.92891
1.9332
1.93553
1.93371
1.93469
1.93936
1.93637
1.93946
1.94237
1.94758
1.95238
1.95615
1.97403
1.974
1.97533
1.9764
1.97564
1.49376
1.44896
1.37264
1.28081
1.17437
1.11585
1.07904
1.07304
1.11734
1.13286
1.20742
1.40359
1.56062
1.62965
1.65074
1.67283
1.74531
1.85325
1.87494
0.361813
0.166887
0.18049
0.213044
0.177404
0.146949
0.102392
0.0923745
0.117966
0.185383
0.189017
0.170134
0.242468
0.557952
1.11476
1.40515
1.51723
1.54678
1.58944
0.275802
0.0148322
0.0177151
0.0294877
0.0349979
0.0909587
0.0589836
0.0591791
0.185946
0.303666
0.325022
0.255203
0.0909848
0.0584109
0.448279
0.759049
0.768416
0.758221
0.921871
0.130024
0.0354074
0.0147311
0.0143855
0.0135131
0.0241396
0.0603879
0.0663783
0.139462
0.124394
0.497704
0.435068
0.212066
0.0619167
0.319001
0.309539
0.213373
0.251898
0.499473
0.0308719
0.0498052
0.0397999
0.0199793
0.0199324
0.0134669
0.0597302
0.0739917
0.041463
0.0564647
0.462222
0.339258
0.0727298
0.058236
0.300483
0.143824
0.0975
0.263358
0.447238
0.0208731
0.0620438
0.087753
0.0381643
0.0193249
0.0152482
0.042891
0.0576452
0.0350327
0.0612599
0.449262
0.184398
0.14542
0.055128
0.223005
0.113452
0.0980967
0.130577
0.276101
0.00770007
0.0038078
0.0014874
0.00123216
0.000800621
0.000685866
0.000721049
0.000560148
0.000586041
0.000584497
0.000605771
0.000620704
0.000620091
0.00060622
0.000565087
0.000564677
0.000605774
0.000676813
0.00065225
0.00130746
0.0015941
0.000855197
0.00323306
0.0397917
0.014571
0.00114605
0.00100262
0.00164319
0.0203962
0.0661953
0.0960606
0.102158
0.0985994
0.103413
0.119229
0.125854
0.103273
0.0931473
0.120058
0.142654
0.139071
0.134603
0.136005
0.129679
0.100494
0.0531913
0.372477
0.417786
0.438939
0.461661
0.543468
0.64705
0.653551
0.729484
0.665555
0.641131
0.696855
0.768188
0.811688
0.824676
0.80015
0.878597
0.897721
0.874975
0.885389
0.876605
0.845525
0.758254
0.572739
1.03227
1.02183
1.02744
1.03702
1.04173
1.02114
1.00299
1.00372
1.01538
1.14966
1.15363
1.15403
1.15393
1.05876
1.00916
1.01566
1.0699
1.0706
1.01554
1.0033
1.0048
1.01731
1.09438
1.00045
1.0004
1.00044
1.02018
1.01931
1.00241
1.00047
1.0663
1.15256
1.15245
1.12607
1.01932
1.00036
1.00027
1.00018
1.00005
1.00014
1.00025
1.00019
0.999486
1.00029
1.00079
1.0576
1.00044
1.00038
1.00031
1.00023
1.00018
1.00017
1.00024
1.00045
1.00296
1.00318
1.00077
1.00021
1.0002
1.00019
1.00004
0.999574
0.999774
0.999846
0.999883
0.997995
0.997866
0.999955
1.00079
1.05662
1.05445
1.04966
1.0427
1.03836
1.03771
1.04086
1.04049
1.03623
1.02998
1.02337
1.01618
0.99979
1.00005
1.00005
0.999617
0.993942
0.99412
0.999385
0.998805
0.99171
0.995549
0.999988
2.35332
2.34594
2.3315
2.30695
2.28288
2.27632
2.28998
2.29486
2.27882
2.24937
2.21055
2.16037
2.09268
1.95326
1.71919
1.4749
1.29536
1.15044
0.990678
0.997913
1.00552
0.984017
0.990871
2.99956
2.99948
2.99972
2.99984
2.99982
2.99945
2.9979
2.99566
2.99484
2.99444
2.99499
2.99592
2.99361
2.98399
2.93878
2.82681
2.69582
2.56019
2.35433
2.12472
2.09931
1.85569
1.55756
3
3
3
2.99999
3
3
3
3
3
3
3
3
3
2.99954
2.99922
2.99935
2.99951
2.99504
2.99003
2.98004
2.97808
2.97455
2.9461
3
3
3
3
3
3
3
3
3
3
2.99999
2.99996
2.99995
2.99996
2.99995
2.99985
2.99998
2.99998
2.99991
2.99959
2.9999
2.99998
3
3
3
3
3
3
3
3
2.99999
2.99999
2.99995
2.99991
2.99991
2.99991
2.99991
2.99996
2.99996
2.99996
2.99993
2.99992
2.99997
2.99999
3
3
3
3
3
3
3
3
3
2.99999
2.99999
2.99992
2.99992
2.99994
2.99995
2.99989
2.99988
2.99988
2.99988
2.99988
2.99988
2.99995
3
3
3
3
3
3
3
3
3
3
3
3
2.99999
2.99998
3
2.99999
2.99994
2.9999
2.9999
2.99994
2.99999
3
3
3
3
3
3
3
3
3
3
3
3
3
3
3
3
3
3
3
2.99997
2.99999
3
3
2.99998
2.99992
2.99992
2.99997
2.99998
3
3
3
3
3
3
3
3
3
3
3
3
3
3
3
3
3
3
2.99992
2.99986
2.99986
2.99993
2.99998
3
3
3
3
3
3
3
3
3
3
3
3
3
3
3
3
3
3
2.99995
2.99986
2.99986
2.99986
2.99991
3
3
3
3
3
3
3
3
3
3
3
3
3
3
3
3
3
3
3
2.99998
2.99987
2.99985
2.99987
3
3
3
3
3
3
3
3
3
3
3
3
3
3
3
3
3
3
3
3
2.99998
2.99988
2.99992
3
3
3
3
3
3
3
3
3
3
3
3
3
3
3
3
3
3
3
3
3
2.99999
2.99998
3
3
3
3
3
3
3
3
3
3
3
3
3
3
3
3
3
3
3
3
3
3
3
3
3
3
3
3
3
3
3
3
3
3
3
3
3
3
3
3
3
3
3
3
3
3
3
3
3
3
3
3
3
3
3
3
3
3
3
3
3
3
3
3
3
3
3
3
3
3
3
3
3
3
3
3
3
3
3
3
3
3
3
3
3
3
3
3
3
3
3
3
3
3
3
3
3
3
3
3
3
3
3
3
3
3
3
3
3
3
3
3
3
3
3
3
3
3
3
3
3
3
3
3
3
3
3
3
3
3
3
3
3
3
3
3
3
3
3
3
3
3
3
3
3
3
3
3
3
3
3
3
3
3
3
3
3
3
3
3
3
3
3
3
3
3
3
3
3
3
3
3
3
3
3
3
3
3
3
3
3
3
3
3
3
3
3
3
3
3
3
3
3
3
3
3
3
3
3
3
3
3
3
3
3
3
3
3
3
3
3
3
3
3
3
3
3
3
3
3
3
3
3
3
3
3
3
3
3
3
3
3
3
3
3
3
3
3
3
3
3
3
3
3
3
3
3
3
3
3
3
3
3
3
3
3
3
3
3
3
3
3
3
3
3
3
3
3
3
3
3
3
3
3
3
3
3
3
3
3
3
3
3
3
3
3
3
3
3
3
3
3
3
3
3
3
3
3
3
3
3
3
3
3
3
3
3
3
3
3
3
3
3
3
3
3
3
3
3
3
3
3
3
3
3
3
3
3
3
3
3
3
3
3
3
3
3
3
3
3
3
3
3
3
3
3
3
3
3
3
3
3
3
3
3
3
3
3
3
3
3
3
3
3
3
3
3
3
3
3
3
3
3
3
3
3
3
3
3
3
3
3
3
3
3
3
3
3
3
3
3
3
3
3
3
3
3
3
3
3
3
3
3
3
3
3
3
3
3
3
3
3
3
3
3
3
3
3
3
3
3
3
3
3
3
3
3
3
3
3
3
3
3
3
3
3
3
3
3
3
3
3
3
3
3
3
3
3
3
3
3
3
3
3
3
3
3
3
3
3
3
3
3
3
3
3
3
3
3
3
3
3
3
3
3
3
3
3
3
3
3
3
3
3
3
3
3
3
3
3
3
3
3
3
3
3
3
3
3
3
3
3
3
3
3
3
0.00556908
0.00642065
0.00633105
0.00603507
0.0266655
0.0271833
0.0489267
0.0554023
0.442168
0.369686
0.241365
0.178904
1.09901
1.05571
0.809133
0.669958
1.0725
1.03706
1.00247
1.00115
1.00119
1.00125
1.00113
1.00083
1.00001
1.00046
1.00053
1.00079
0.997626
1.00011
1.00002
1.00013
1.37535
1.26254
1.15218
1.08243
2.85122
2.75351
2.61122
2.45988
3
2.99776
2.99156
2.98929
3
3
3
3
3
3
3
3
3
3
3
3
2.99999
2.99999
3
3
2.99997
2.99998
3
3
2.99988
2.99991
3
3
2.99989
2.99989
2.99989
2.99993
3
3
2.99994
2.9999
3
3
3
2.99998
3
3
3
3
3
3
3
3
3
3
3
3
3
3
3
3
3
3
3
3
3
3
3
3
3
3
3
3
3
3
3
3
3
3
3
3
3
3
3
3
3
3
3
3
3
3
3
3
3
3
3
3
3
3
3
3
3
3
3
3
3
3
3
3
3
3
3
3
3
3
3
3
3
3
3
3
3
3
3
3
3
3
3
3
3
3
3
3
0.00756037
0.0281413
0.0953068
0.046509
0.0201443
0.0341659
0.0469446
0.0325426
0.0303308
0.0735255
0.337125
0.190228
0.242317
0.170126
0.18968
0.0820543
0.107028
0.11096
0.17954
0.0137973
0.0351946
0.124432
0.164419
0.0616179
0.0337368
0.031351
0.0313321
0.0517652
0.413125
0.254989
0.147731
0.217713
0.300223
0.131773
0.100891
0.104205
0.177761
0.220365
0.142891
0.439803
0.684919
0.668763
0.487759
0.294629
0.138069
0.106437
0.682483
0.894654
0.836796
0.511496
0.277074
0.285895
0.230555
0.546102
0.6189
0.599144
0.599532
0.917636
1.08791
1.20627
1.11688
0.844323
0.719969
0.622005
0.743209
1.09312
1.22302
1.22282
1.04877
0.840807
0.761845
0.842614
1.0017
1.00531
1.00567
1.00644
1.02476
1.23483
1.22375
1.08746
1.06206
1.05055
1.03491
1.01273
1.0162
1.11558
1.19586
1.04858
1.00114
1.00066
1.00106
1.00135
1.00163
1.00208
1.00155
1.00127
1.14227
1.05053
0.998252
1.00244
1.0029
1.00291
1.00278
1.0027
1.00301
1.00838
1.00463
1.00285
1.00291
1.0024
1.00149
1.00119
1.00605
1.24811
1.00452
0.984451
0.9458
0.978443
1.00032
1.0026
1.00305
1.00341
1.00458
1.00264
1.00187
1.03308
1.14436
1.31478
1.52468
1.6513
1.78209
2.10655
2.18219
1.00131
0.988134
0.945821
0.953651
0.99636
0.999769
1.02016
1.27832
1.77591
2.15525
2.40643
2.58285
2.76694
2.88934
2.9382
2.94435
2.96486
2.98859
2.98534
1.03391
1.02844
0.97468
1.00665
1.04176
1.23723
1.80786
2.62701
2.95674
2.99834
2.99947
2.99979
2.99955
2.99904
2.99874
2.99787
2.99927
2.99982
2.99985
2.26248
1.99589
1.79277
1.67487
1.74351
2.29181
2.88841
2.99953
2.99973
2.99989
2.99999
2.99999
3
2.99989
2.99981
2.9999
2.99992
2.99993
2.99981
2.9831
2.94737
2.9442
2.95282
2.96901
2.9507
2.96983
2.9993
2.99978
2.99955
2.99963
2.99994
3
2.99983
2.99975
2.99975
2.99983
2.99982
2.99979
3
3
2.98954
2.99386
2.99994
2.99905
2.99805
2.99954
2.99952
2.9995
2.9995
2.99985
3
2.99989
2.99975
2.99983
2.99986
2.99991
2.99979
3
3
3
2.99997
2.99996
2.99999
2.99994
2.99949
2.9995
2.9995
2.99962
2.99994
3
2.99999
2.99979
2.99986
2.99987
2.99991
2.99991
3
2.99999
2.99999
2.99998
3
2.99999
2.99992
2.99979
2.99986
2.99994
2.99997
2.99999
3
3
2.99996
2.9999
2.99987
2.99995
2.99999
2.99999
2.99998
2.99999
3
3
3
2.99997
2.99991
2.99995
2.99997
2.99995
2.9999
2.99985
2.99991
2.99996
2.9999
2.99994
2.99999
2.99999
2.99999
2.99998
2.99999
3
3
3
2.99999
2.99993
2.99987
2.99985
2.99984
2.99984
2.99984
2.99986
2.99993
2.9999
2.99995
2.99998
2.99998
3
2.99999
2.99999
2.99999
2.99996
2.99996
2.99997
2.99994
2.9999
2.99992
2.9999
2.99989
2.99988
2.9999
2.99993
2.99997
2.99996
2.99998
2.99998
3
3
3
2.99997
2.99989
2.99988
2.99987
2.99988
2.9999
2.9999
2.99988
2.99987
2.99989
2.99994
2.99997
2.99999
2.99996
2.99996
2.99999
2.99989
2.99993
2.99993
2.99987
2.99989
2.99986
2.99987
2.99987
2.99988
2.99989
2.99989
2.9999
2.99991
2.99992
2.99994
2.99998
2.99997
2.99997
3
2.99988
2.99982
2.99982
2.99983
2.99995
2.9999
2.99987
2.99992
2.99996
2.99996
2.99998
2.99999
2.99998
2.99995
2.99993
2.99993
2.99997
2.99997
3
2.99998
2.99986
2.99982
2.99989
3
2.99999
2.99997
2.99997
2.99997
2.99997
2.99999
3
3
3
2.99997
2.99993
2.99997
2.99998
2.99999
3
2.99999
2.99997
2.99999
3
3
2.99999
2.99999
2.99998
2.99999
3
3
3
3
3
2.99999
2.99999
3
2.99999
3
3
3
3
3
3
3
3
3
3
3
3
3
3
3
3
3
3
2.99999
3
3
3
3
3
3
3
3
3
3
3
3
3
3
3
3
3
3
3
3
3
3
3
3
3
3
3
3
3
3
3
3
3
3
3
3
3
3
3
3
3
3
3
3
3
3
3
3
3
3
3
3
3
3
3
3
3
3
3
3
3
3
3
3
3
3
3
3
3
3
3
3
3
3
3
3
3
3
3
3
3
3
3
3
3
3
3
3
3
3
3
3
3
3
3
3
3
3
3
3
3
3
3
3
3
3
3
3
3
3
3
3
3
3
3
3
3
3
3
3
3
3
3
3
3
3
3
3
3
3
3
3
3
3
3
3
3
3
3
3
3
3
3
3
3
3
3
3
3
3
3
3
3
3
3
3
3
3
3
3
3
3
3
3
3
3
3
3
3
3
3
3
3
3
3
3
3
3
3
3
3
3
3
3
3
3
3
3
3
3
3
3
3
3
3
3
3
3
3
3
3
3
3
3
3
3
3
3
3
3
3
3
3
3
3
3
3
3
3
3
3
3
3
3
3
3
3
3
3
3
3
3
3
3
3
3
3
3
3
3
2.99999
2.99999
3
3
3
3
2.99999
3
3
3
3
3
3
3
3
3
3
3
3
2.99999
2.99999
2.99999
3
3
3
2.99999
3
3
3
3
3
3
3
3
3
3
3
3
3
2.99999
2.99999
3
3
3
2.99999
3
3
3
3
3
3
3
3
3
3
3
3
3
3
2.99999
2.99999
3
3
2.99999
3
3
3
3
3
3
3
3
3
3
3
3
3
3
2.99999
2.99999
2.99999
3
3
3
3
3
3
3
3
3
3
3
3
3
3
3
3
3
2.99999
2.99999
3
3
3
3
3
3
3
3
3
3
3
3
3
3
3
3
3
3
3
3
3
)
;

boundaryField
{
    leftWall
    {
        type            calculated;
        value           nonuniform List<scalar> 
50
(
2
2
2
2
2
2
1.99689
1.01944
0.00770007
0.0397917
0.372477
1.03227
1.00045
1.00044
1.05662
2.35332
2.99956
3
3
3
3
3
3
3
3
3
3
3
3
3
3
3
3
3
3
3
3
3
3
3
3
3
3
3
3
3
3
3
3
3
)
;
    }
    rightWall
    {
        type            calculated;
        value           nonuniform List<scalar> 
50
(
1.96971
1.97564
1.87494
1.58944
0.921871
0.499473
0.447238
0.276101
0.17954
0.220365
0.599532
1.00644
1.00155
1.24811
2.18219
2.98534
2.99985
2.99981
2.99979
2.99979
2.99991
2.99999
2.99999
2.99998
2.99998
2.99999
3
3
2.99999
2.99999
2.99999
3
3
3
3
3
3
3
3
3
3
3
3
2.99999
2.99999
2.99999
2.99999
3
3
3
)
;
    }
    lowerWall
    {
        type            calculated;
        value           nonuniform List<scalar> 
62
(
2
2
2
2
2
2
2
2
2
2
2
2
2
2
2
2
2
2
2
1.99998
1.99996
1.99996
1.99996
1.99996
1.99999
2
2
1.96339
0.80663
0.0906436
0.0682734
0.00556908
0.00642065
0.00633105
0.00603507
1.95128
1.95871
1.49376
0.361813
0.275802
0.130024
0.0308719
0.0208731
1.95128
1.95671
1.97057
1.97331
1.97085
1.96807
1.96478
1.96083
1.95953
1.95852
1.95775
1.95774
1.95917
1.96352
1.9659
1.96608
1.9678
1.96957
1.96971
)
;
    }
    atmosphere
    {
        type            calculated;
        value           nonuniform List<scalar> 
46
(
3
3
3
3
3
3
3
3
3
3
3
3
3
3
3
3
3
3
3
3
3
3
3
3
3
3
3
3
3
3
3
3
3
3
3
3
3
3
3
3
3
3
3
3
3
3
)
;
    }
    defaultFaces
    {
        type            empty;
    }
}


// ************************************************************************* //
