/*--------------------------------*- C++ -*----------------------------------*\
| =========                 |                                                 |
| \\      /  F ield         | OpenFOAM: The Open Source CFD Toolbox           |
|  \\    /   O peration     | Version:  2312                                  |
|   \\  /    A nd           | Website:  www.openfoam.com                      |
|    \\/     M anipulation  |                                                 |
\*---------------------------------------------------------------------------*/
FoamFile
{
    version     2.0;
    format      ascii;
    arch        "LSB;label=32;scalar=64";
    class       volScalarField;
    location    "1.1";
    object      alpha.water_0;
}
// * * * * * * * * * * * * * * * * * * * * * * * * * * * * * * * * * * * * * //

dimensions      [0 0 0 0 0 0 0];

internalField   nonuniform List<scalar> 
2268
(
3.40594e-11
2.73123e-11
2.3762e-11
2.2579e-11
2.19975e-11
2.148e-11
2.07037e-11
1.93618e-11
1.83271e-11
1.83412e-11
1.92594e-11
2.1085e-11
2.41319e-11
2.92947e-11
3.69123e-11
5.04173e-11
7.40401e-11
1.16392e-10
1.76374e-10
2.37636e-10
3.26198e-10
3.94278e-10
4.34214e-10
2.67107e-11
2.50948e-11
2.6802e-11
3.05835e-11
3.51159e-11
3.9444e-11
4.24792e-11
4.42611e-11
4.52584e-11
4.63234e-11
4.83991e-11
5.17924e-11
5.75745e-11
6.7668e-11
8.73334e-11
1.26821e-10
2.06491e-10
3.78531e-10
7.04215e-10
1.09496e-09
1.66563e-09
1.59062e-09
1.30864e-09
2.20815e-11
2.35868e-11
2.67291e-11
3.1472e-11
3.85496e-11
4.61163e-11
5.16723e-11
5.65795e-11
5.87743e-11
5.84563e-11
5.54508e-11
5.79796e-11
6.81454e-11
6.43955e-11
8.64686e-11
1.25174e-10
2.21611e-10
4.01771e-10
9.12243e-10
2.08998e-09
7.82818e-09
1.37679e-08
2.36275e-09
1.87869e-11
2.11352e-11
2.78319e-11
4.19918e-11
5.82253e-11
6.3867e-11
6.81553e-11
8.20948e-11
6.25909e-11
5.57625e-11
1.54752e-10
4.03356e-09
3.36319e-09
3.06773e-09
2.66444e-09
2.65708e-09
2.38115e-09
5.45714e-11
5.28019e-11
5.45714e-11
3.23856e-07
3.19452e-07
2.36711e-09
2.64143e-11
3.55772e-11
3.74901e-11
2.60309e-11
3.08228e-11
2.49466e-11
2.41294e-12
-6.24841e-29
-1.72535e-13
-7.80225e-14
0.0233422
0.0529526
0.0795321
0.0982651
0.105483
0.104108
0.0942423
0.0813446
0.071171
0.0651126
0.0590139
0.0508175
0.0453973
6.98349e-11
9.7287e-11
2.07457e-11
1.29829e-11
1.70333e-11
1.67655e-11
1.81265e-12
0.134016
0.34023
0.544485
0.676661
0.752559
0.80041
0.827601
0.837315
0.835512
0.822161
0.802204
0.784059
0.772626
0.759447
0.731646
0.698674
4.63601e-10
1.09706e-11
1.09392e-11
1.11635e-11
6.99179e-12
0.173487
0.548895
0.831919
0.961721
0.998098
0.999991
0.999985
0.99998
0.999974
0.999963
0.999925
0.999858
0.999682
0.99946
0.999599
0.999535
0.998255
0.963916
4.88419e-09
7.1458e-09
0.0274285
0.11872
0.450063
0.858547
0.99854
0.999999
0.999999
0.999999
0.999999
1
1
1
1
1
1
0.999999
0.999999
0.999999
0.999999
0.999996
0.997611
0.01361
0.0206175
0.00633039
0.0030202
0.00470602
0.00473426
0.00489143
0.0334886
0.0631459
0.0339043
0.0339465
0.0413814
0.034929
0.0350142
0.0388027
0.0371459
0.0248307
0.0145333
0.0145266
0.045898
0.0810281
0.029387
0.0326692
0.082395
0.214741
0.214865
0.291442
0.406501
0.185063
0.11754
0.117032
0.0920999
0.0937995
0.0943768
0.0476033
0.0334004
0.016914
0.0145264
0.0881236
0.097604
0.378696
0.476433
0.614261
0.667811
0.682437
0.689657
0.654072
0.500453
0.123063
0.0173635
0.0014605
0.00145943
0.00544351
0.0146035
0.0172728
0.0344193
0.121377
0.0898798
0.408478
0.510987
0.477071
0.41472
0.771771
0.805168
0.805202
0.706193
0.212153
0.00153957
0.00152866
0.00147077
0.00699625
0.0680662
0.164097
0.133952
0.151574
0.347331
0.159131
0.566699
0.462366
0.212916
0.299105
0.66938
0.805202
0.668378
0.198736
0.0149391
0.0163109
0.0216709
0.0885594
0.264845
0.427991
0.607949
0.351625
0.168473
0.347522
0.310613
0.726923
0.710634
0.269562
0.233156
0.398278
0.642527
0.339165
0.0704751
0.116214
0.33218
0.350658
0.406957
0.440365
0.823247
0.863611
0.817879
0.32315
0.184556
0.304431
0.880719
0.854161
0.482257
0.228916
0.378176
0.558744
0.170373
0.131464
0.358659
0.72841
0.805302
0.606984
0.714591
0.863615
0.863614
0.863614
0.837186
0.155494
0.353517
0.91382
0.88521
0.614612
0.375732
0.637745
0.465329
0.088511
0.154602
0.627453
0.837494
0.865838
0.86606
0.860059
0.863611
0.863615
0.86361
0.837933
0.330835
3.77717e-08
0.265051
0.572358
0.868717
0.991361
1
1
1
1
1
1
1
1
1
1
1
0.999994
0.999966
0.999994
0.999999
0.894568
0.37902
0.379447
0.179532
0.819437
1
1
1
1
1
1
0.999994
0.999996
1
1
1
1
0.999514
0.998481
0.998828
0.999947
0.988112
0.505305
0.372547
0.377022
0.611985
0.927781
0.970228
0.999963
1
1
1
1
0.999998
0.999994
0.999996
0.999843
0.999939
1
0.997753
0.995984
0.999367
0.999364
0.952879
0.536401
0.505077
0.614734
0.893654
0.94889
0.998905
0.999781
1
1
1
1
1
1
1
0.999671
0.994551
0.981286
0.98146
0.991633
0.976342
0.968816
0.903912
0.564838
0.535359
0.752197
0.889179
0.89464
0.773209
0.703591
0.822133
0.935437
0.999959
0.999999
0.994724
0.981296
0.941788
0.864033
0.853901
0.776907
0.617101
0.752106
0.861803
0.815863
0.668068
0.395728
0.459346
0.600965
0.687651
0.620614
0.256577
0.0895059
0.0498448
0.186426
0.382846
0.782784
0.806618
0.750142
0.5232
0.285992
0.133761
0.162236
0.304311
0.368793
0.305222
0.277863
0.256859
0.166235
0.175494
0.425774
0.44908
0.346799
0.0270448
0.000483372
1.33431e-05
0.000324962
0.000366351
0.198954
0.330814
0.131974
0.0597656
8.19842e-11
6.63203e-11
5.39208e-06
0.00744827
0.0288886
0.0573149
0.000624106
1.887e-06
1.88695e-06
0.00540398
0.186208
0.280815
0.191252
0.0115073
2.30894e-05
5.39758e-05
1.27191e-05
0.00119415
0.0030759
0.0578157
0.00156626
6.05256e-13
1.55431e-11
6.9546e-11
3.13381e-05
0.0004722
0.000667229
0.000119872
3.19338e-10
0.000197431
1.8938e-06
0.000111335
0.0265042
0.0528535
0.0137645
0.000241299
5.28396e-05
1.23212e-05
2.61334e-05
3.257e-06
0.00267127
0.0177521
0.0148355
4.11747e-09
3.94602e-09
5.585e-09
1.34981e-05
4.67486e-05
6.3246e-05
2.6809e-07
1.80336e-10
-1.07132e-08
-4.60037e-07
2.29722e-05
0.0028746
0.00549497
4.98226e-11
4.583e-05
8.51752e-08
2.74693e-06
1.11021e-05
8.73125e-06
3.36379e-06
0.00204388
0.0105459
5.58437e-08
4.08329e-07
5.13865e-09
8.97649e-07
4.1862e-06
4.22505e-06
8.4164e-10
3.11863e-06
5.70458e-06
3.02112e-05
6.18925e-05
0.000174752
0.00050309
3.05522e-06
7.69581e-10
5.00278e-11
3.62008e-08
2.63517e-06
4.72108e-06
1.82577e-06
1.98479e-06
9.99376e-14
5.00505e-12
1.25089e-06
8.5908e-06
2.54545e-08
2.30354e-07
7.29359e-07
6.74958e-10
5.55834e-09
1.54576e-06
2.96592e-06
1.47587e-05
2.39886e-05
2.48477e-05
6.94482e-08
7.14549e-08
4.21006e-07
4.34197e-07
4.29755e-07
3.17966e-07
8.67463e-08
9.07225e-08
9.81833e-08
2.27836e-12
7.47271e-07
3.12746e-06
2.38934e-06
6.986e-10
9.11509e-10
6.74674e-10
6.89742e-10
1.08458e-09
2.67163e-08
1.92082e-07
2.03484e-07
-1.42701e-14
-5.708e-11
8.55298e-08
3.55287e-07
4.28709e-07
3.68647e-07
3.02769e-07
2.86375e-07
2.51168e-07
2.62348e-07
1.38551e-07
1.24714e-07
2.16658e-07
2.10267e-06
1.91151e-06
7.0787e-10
1.82073e-09
1.82888e-09
5.13505e-10
1.06848e-18
1.77905e-18
1.06848e-18
2.25083e-12
2.07644e-09
2.07456e-08
1.12794e-07
1.31812e-07
7.90437e-08
2.38151e-08
1.6407e-08
1.86138e-08
9.52529e-09
2.88096e-09
2.8872e-09
1.11945e-06
1.75127e-06
5.21868e-07
1.69499e-06
2.69861e-07
5.44064e-10
8.33152e-09
1.15997e-08
7.64739e-09
8.09773e-09
9.55735e-09
1.16488e-12
6.93966e-12
8.29973e-09
2.19112e-08
1.97459e-08
1.94565e-08
1.88726e-08
9.76812e-09
3.39254e-09
3.36243e-09
2.85798e-09
2.34188e-09
1.01036e-06
3.01807e-06
3.07055e-07
3.75501e-07
5.01868e-07
7.03733e-10
6.21788e-09
2.83634e-08
4.12354e-08
3.12452e-07
5.99356e-07
2.429e-06
8.83164e-07
6.00289e-09
1.08453e-08
2.03471e-08
2.75224e-08
2.33293e-08
1.19701e-08
3.62603e-09
3.06372e-09
2.00247e-09
1.5275e-09
1.01096e-06
4.47599e-06
7.34113e-07
2.51599e-07
6.69227e-08
3.17089e-16
4.79495e-15
1.87487e-08
4.73654e-08
7.77691e-07
3.29442e-06
4.38173e-06
4.38201e-06
2.78877e-06
3.67242e-07
2.76646e-08
2.93547e-08
1.44088e-08
6.58307e-09
2.66312e-09
1.62831e-09
9.93568e-10
6.56057e-10
1.12039e-05
5.24611e-06
3.57178e-06
-1.91132e-09
-1.15312e-15
2.13938e-06
2.27802e-06
2.17236e-11
2.51119e-08
6.15792e-07
4.37268e-06
4.38201e-06
4.38173e-06
4.35494e-06
4.19126e-07
4.07036e-08
1.62677e-08
7.787e-09
3.88654e-09
1.24868e-09
7.97738e-10
3.76193e-10
2.53893e-10
5.12755e-05
7.69248e-05
0.000127939
0.000209303
0.000206421
0.000154827
3.832e-06
3.39352e-11
5.17454e-09
2.19083e-07
2.47694e-06
4.38173e-06
3.912e-06
9.49368e-07
9.69588e-08
1.73181e-08
7.4832e-09
3.60129e-09
1.91332e-09
7.04375e-10
2.9683e-10
1.17822e-10
6.94109e-11
3.13313e-05
0.000108357
0.000219731
0.000373082
0.000372531
0.000187364
4.14817e-07
1.97215e-11
2.09074e-09
3.5112e-08
2.86451e-07
9.71395e-07
4.06123e-07
8.07375e-08
1.90327e-08
6.97614e-09
3.26853e-09
1.5513e-09
7.86161e-10
1.93642e-10
9.71647e-11
3.68592e-11
1.86857e-11
5.10584e-06
7.74311e-05
0.000185909
0.000245712
0.000179651
9.42943e-05
2.63704e-11
2.64606e-11
3.46074e-11
2.75326e-08
5.32608e-08
1.05858e-07
4.76833e-08
1.77603e-08
7.89754e-09
3.70107e-09
1.55121e-09
6.05684e-10
2.32397e-10
7.14365e-11
2.81897e-11
1.03251e-11
3.38933e-12
1.10813e-06
7.43195e-06
2.6378e-05
1.04863e-05
4.01389e-07
7.92509e-07
0
2.57551e-09
6.3281e-08
1.02472e-07
1.04967e-07
5.5037e-08
2.4459e-08
7.6746e-09
3.17299e-09
1.2097e-09
4.21627e-10
1.47998e-10
5.92808e-11
1.94618e-11
8.30234e-12
3.6271e-12
7.73153e-13
9.03907e-10
9.08238e-10
8.91603e-10
4.7049e-10
1.93861e-10
-2.93138e-10
1.90889e-08
8.08125e-08
1.17118e-07
1.21891e-07
1.14167e-07
4.50778e-08
5.41499e-09
1.00006e-09
3.12578e-10
1.46417e-10
7.28126e-11
3.66225e-11
1.8304e-11
8.46135e-12
3.75777e-12
1.16266e-12
1.44233e-13
2.80148e-09
3.37128e-09
8.0835e-09
1.19908e-09
3.9592e-09
2.88465e-08
6.92154e-08
1.25596e-07
1.2523e-07
1.00178e-07
2.72652e-08
5.03926e-09
5.30327e-10
1.92432e-10
1.13403e-10
6.82617e-11
3.94411e-11
2.11261e-11
1.07998e-11
4.23558e-12
1.70119e-12
5.17663e-13
4.05311e-14
3.40458e-09
2.28045e-09
2.22876e-09
1.3181e-09
1.90059e-08
3.33449e-08
7.23124e-08
1.0819e-07
6.96963e-08
1.59399e-08
9.232e-09
8.61611e-10
2.35871e-10
1.46708e-10
9.28254e-11
5.63109e-11
3.14431e-11
1.58073e-11
7.15818e-12
2.80135e-12
9.8629e-13
2.34573e-13
1.71918e-14
2.69386e-09
9.68508e-06
2.27982e-09
1.60902e-08
2.90096e-08
4.51185e-08
5.29103e-08
2.64704e-08
6.46727e-09
4.92029e-09
9.84804e-10
2.80451e-10
2.06797e-10
1.37247e-10
8.60941e-11
4.94848e-11
2.54597e-11
1.16108e-11
4.87607e-12
1.4765e-12
4.44254e-13
1.08177e-13
4.32487e-15
3.83794e-05
3.93505e-05
2.38318e-05
1.99238e-07
5.27818e-08
5.55285e-08
6.9579e-08
8.72636e-09
6.77821e-10
5.50244e-10
4.19434e-10
3.14046e-10
2.14415e-10
1.34049e-10
7.50259e-11
3.86713e-11
1.79081e-11
7.45881e-12
2.69654e-12
7.34143e-13
2.2866e-13
3.47924e-14
3.48762e-15
4.54359e-05
1.6957e-05
2.36146e-05
2.74025e-07
8.44635e-08
8.37127e-08
8.81544e-08
1.16034e-08
1.91287e-09
9.60528e-10
6.10758e-10
3.63816e-10
2.17141e-10
1.16318e-10
5.77184e-11
2.62451e-11
1.0734e-11
3.90585e-12
1.31921e-12
3.31732e-13
7.88435e-14
1.37002e-14
1.66021e-15
5.64578e-06
8.23832e-06
1.921e-05
9.87475e-08
8.85134e-08
1.45923e-07
7.38222e-08
7.93519e-09
2.85237e-09
1.23599e-09
6.02353e-10
3.20731e-10
1.67539e-10
8.08563e-11
3.68945e-11
1.54015e-11
5.73334e-12
1.88782e-12
5.71038e-13
1.23581e-13
2.88684e-14
4.20451e-15
5.69393e-16
5.85142e-07
3.51879e-06
8.24235e-06
1.82469e-07
2.0624e-07
1.43929e-07
3.72982e-08
5.82404e-09
2.19577e-09
9.50183e-10
4.53677e-10
2.26201e-10
1.09362e-10
5.06355e-11
2.14834e-11
8.05654e-12
2.65487e-12
7.73575e-13
2.0772e-13
4.08409e-14
6.87115e-15
9.99301e-16
1.26869e-16
2.29642e-07
1.44167e-06
2.98096e-06
1.40709e-06
3.33613e-07
7.78279e-08
9.98036e-09
2.93362e-09
1.28543e-09
5.87699e-10
2.85057e-10
1.38309e-10
6.53366e-11
2.81256e-11
1.07528e-11
3.60665e-12
1.06313e-12
2.7659e-13
6.62449e-14
1.09762e-14
2.13337e-15
2.44863e-16
2.76428e-17
2.28192e-07
5.80168e-07
2.87824e-06
1.18532e-06
2.9226e-07
1.81193e-08
2.32542e-09
1.48365e-09
7.28484e-10
3.54622e-10
1.7678e-10
8.42104e-11
3.64409e-11
1.392e-11
4.68599e-12
1.38581e-12
3.6142e-13
8.36818e-14
1.78856e-14
2.66129e-15
3.91682e-16
4.77092e-17
5.12605e-18
4.0719e-07
2.5364e-07
7.61627e-07
2.40345e-07
6.31215e-08
4.44788e-09
1.4788e-09
9.00402e-10
4.56987e-10
2.25949e-10
1.07505e-10
4.64924e-11
1.79394e-11
6.0967e-12
1.79566e-12
4.67089e-13
1.06945e-13
2.18312e-14
4.14025e-15
5.24851e-16
8.44488e-17
5.07293e-18
4.82133e-19
4.65226e-07
4.4814e-07
1.53505e-07
1.29176e-07
4.25749e-09
1.32649e-09
1.12412e-09
6.39846e-10
2.91093e-10
1.28701e-10
5.71749e-11
2.17689e-11
7.40936e-12
2.22754e-12
5.89812e-13
1.34539e-13
2.75694e-14
5.06355e-15
8.75209e-16
8.71692e-17
8.56627e-18
8.11264e-19
1.00258e-19
4.66068e-07
3.11033e-07
1.4239e-07
4.95433e-08
6.4889e-09
1.65702e-09
8.87227e-10
3.72378e-10
1.57488e-10
6.58533e-11
2.34665e-11
8.31642e-12
2.60147e-12
7.10251e-13
1.62691e-13
3.26713e-14
5.87832e-15
9.7008e-16
1.45656e-16
1.35194e-17
1.77759e-18
1.6061e-19
1.33518e-20
1.65224e-07
6.26251e-08
6.44394e-08
2.06748e-08
5.74284e-09
1.59471e-09
4.82858e-10
1.96598e-10
8.01369e-11
2.80572e-11
9.22307e-12
2.75082e-12
7.40454e-13
1.76573e-13
3.7164e-14
6.97257e-15
1.16584e-15
1.77964e-16
2.07955e-17
1.54015e-18
2.26083e-19
1.9881e-20
1.61922e-21
4.2188e-08
1.84596e-08
1.75125e-08
8.15612e-09
2.33532e-09
7.22638e-10
2.56981e-10
1.00142e-10
3.32138e-11
1.03333e-11
3.07183e-12
8.45793e-13
2.10003e-13
4.60597e-14
8.85999e-15
1.5129e-15
2.27484e-16
2.93431e-17
3.35801e-18
3.37424e-19
2.76185e-20
2.10289e-21
1.35951e-22
7.43714e-09
7.1399e-09
4.93412e-09
1.8763e-09
7.1614e-10
2.99896e-10
1.10157e-10
3.697e-11
1.11584e-11
3.22528e-12
8.78337e-13
2.20201e-13
5.00994e-14
1.01531e-14
1.80745e-15
2.79971e-16
3.76495e-17
4.33003e-18
4.1959e-19
3.55057e-20
2.56813e-21
1.56544e-22
7.96071e-24
2.28235e-09
2.92598e-09
1.30524e-09
5.45875e-10
2.88764e-10
1.02626e-10
3.73902e-11
1.11532e-11
3.19233e-12
8.74163e-13
2.22074e-13
5.15352e-14
1.08219e-14
2.01633e-15
3.27929e-16
4.63665e-17
5.5724e-18
5.62083e-19
4.70229e-20
3.29098e-21
1.95643e-22
9.75068e-24
4.08469e-25
6.32719e-10
7.5114e-10
4.17283e-10
2.10465e-10
8.85199e-11
3.22904e-11
1.03299e-11
2.93831e-12
8.11291e-13
2.11738e-13
5.07718e-14
1.1017e-14
2.13366e-15
3.61828e-16
5.30655e-17
6.30384e-18
6.73891e-19
6.31585e-20
4.58439e-21
2.60549e-22
1.24684e-23
4.91834e-25
1.57307e-26
2.39289e-10
2.40309e-10
1.36608e-10
6.83432e-11
2.23509e-11
8.37401e-12
2.49693e-12
6.92012e-13
1.85008e-13
4.62399e-14
1.0426e-14
2.09061e-15
3.68556e-16
5.66826e-17
7.52045e-18
8.47786e-19
8.03029e-20
6.23241e-21
3.83015e-22
1.80214e-23
6.43769e-25
1.85887e-26
4.23583e-28
5.57057e-11
6.21111e-11
3.36449e-11
1.45973e-11
5.94324e-12
1.86956e-12
5.4429e-13
1.48465e-13
3.84248e-14
9.14632e-15
1.91437e-15
3.51312e-16
5.64043e-17
7.90985e-18
9.51682e-19
9.62602e-20
8.00404e-21
5.30981e-22
2.71016e-23
1.0213e-24
2.69869e-26
5.29298e-28
7.63198e-30
1.22091e-11
1.61087e-11
7.77845e-12
3.70693e-12
1.24424e-12
3.7502e-13
1.07306e-13
2.85131e-14
6.9945e-15
1.52609e-15
2.89639e-16
4.85046e-17
7.10978e-18
9.03216e-19
1.04884e-19
9.64997e-21
6.97953e-22
3.85949e-23
1.57222e-24
4.46991e-26
8.12989e-28
8.48785e-30
6.00872e-32
0.471783
0.467045
0.664843
0.74717
0.879219
0.837905
0.862748
0.902554
0.94861
0.947577
0.947997
0.836193
0.445486
0.415742
0.413187
0.342391
0.00171231
0.000595395
0.000645239
4.25563e-05
4.05983e-05
7.80141e-05
5.90875e-05
3.66518e-05
6.99231e-07
5.3424e-07
5.66355e-07
6.16555e-07
5.27155e-07
5.24752e-07
5.27155e-07
5.57659e-07
2.41034e-05
2.52694e-05
2.52561e-05
2.52692e-05
4.61035e-06
5.04049e-06
4.13008e-06
2.95849e-06
5.62854e-08
3.0611e-09
2.67748e-09
2.55344e-09
1.4824e-09
1.49415e-09
3.46028e-09
2.20585e-08
2.13657e-09
1.84216e-09
1.63326e-09
1.05152e-09
2.18014e-09
2.05318e-09
1.5377e-09
1.19863e-09
1.25406e-09
9.67242e-10
8.22283e-10
7.36448e-10
5.60665e-10
4.21388e-10
2.69489e-10
2.12718e-10
2.00936e-10
1.32737e-10
6.80141e-11
3.83789e-11
4.12261e-11
2.29128e-11
1.16954e-11
4.34439e-12
6.92971e-12
2.7391e-12
1.47583e-12
1.30864e-12
9.59344e-13
5.29449e-13
5.55359e-13
5.56774e-13
1.86878e-13
1.81225e-13
1.7994e-13
1.87484e-13
4.38805e-14
3.81644e-14
4.20909e-14
4.51102e-14
9.58557e-15
1.02851e-14
9.30912e-15
9.38037e-15
1.37367e-15
1.54852e-15
1.6917e-15
1.55556e-15
1.23778e-16
2.90558e-16
2.6387e-16
2.57066e-16
4.65319e-17
4.64939e-17
4.39322e-17
3.55617e-17
2.99823e-16
3.68078e-17
7.69002e-18
4.7779e-18
1.20452e-16
1.80546e-17
1.97704e-18
5.39922e-19
2.43594e-17
2.67015e-18
3.03185e-19
6.83925e-20
5.70562e-18
6.05843e-19
5.7231e-20
1.1773e-20
8.75301e-19
1.01437e-19
1.17e-20
1.48895e-21
9.56591e-20
1.26167e-20
1.8918e-21
1.82867e-22
1.6039e-20
2.17075e-21
2.75966e-22
2.44882e-23
1.80179e-21
2.15736e-22
2.48412e-23
2.08901e-24
2.02993e-22
2.25817e-23
2.29501e-24
1.76852e-25
9.15278e-24
8.84485e-25
9.22558e-26
8.92253e-27
6.79831e-25
5.15187e-26
3.69592e-27
4.71345e-28
1.75971e-26
1.08895e-27
9.31506e-29
1.73582e-29
8.3765e-28
4.02093e-29
3.01006e-30
8.73539e-31
1.54465e-29
5.87492e-31
7.58847e-32
1.31562e-31
1.73339e-31
1.01988e-32
1.28026e-32
1.70607e-31
1.41939e-33
9.53639e-34
1.52591e-32
2.54034e-31
0.633467
0.913279
0.699897
0.397212
0.514457
0.640826
0.185969
0.0101739
0.120171
0.502868
0.646254
0.826618
0.865619
0.862311
0.84588
0.79218
0.525541
0.247781
0.389087
0.902522
0.59448
0.164167
0.0196373
0.131789
0.197704
0.0689499
0.009505
0.00569586
0.00583368
0.108632
0.281593
0.374315
0.323905
0.310709
0.195716
0.028372
0.0184062
0.107594
0.563805
0.115122
0.00927275
0.00615054
0.0100961
0.0263386
0.0161294
0.00302042
0.00345511
0.015676
0.00723626
1.28331e-19
3.41331e-19
4.54951e-19
-4.89332e-15
-2.65853e-12
-4.07976e-11
0.000437269
0.00625428
0.193681
0.0888444
0.0805013
0.0704008
0.0145969
0.00477338
0.00573352
0.00387753
0.0104519
0.0398245
0.0393875
0.0350596
0.00520984
9.63692e-08
6.07514e-15
2.64469e-15
2.13574e-05
0.000250688
1.00765e-06
0.00600332
0.0767687
0.113246
0.11308
0.100039
0.0802782
0.0334943
0.00491815
0.00733101
0.0174186
0.010895
0.00582542
0.00703357
0.000490611
3.35716e-12
8.95708e-08
1.29978e-08
1.11692e-09
9.9155e-07
0.000161068
0.00711493
0.0194183
0.0170472
0.00398506
3.04892e-11
3.81357e-17
-1.8413e-06
-6.25877e-07
-1.14963e-07
6.03838e-17
5.06801e-08
3.07533e-09
3.55824e-08
6.74971e-07
3.93261e-07
1.1169e-09
1.10137e-09
1.0758e-09
1.25739e-06
1.52275e-06
0.000164726
4.00187e-05
4.4739e-05
0.000105563
0.000107218
0.00010498
7.8324e-05
2.57719e-05
2.772e-09
4.41952e-07
1.05796e-07
8.43381e-08
1.89636e-07
1.23675e-07
1.10917e-09
1.08757e-09
2.7106e-09
5.50942e-06
4.96181e-05
5.8746e-05
3.77091e-05
2.66992e-09
2.42828e-13
2.38617e-13
2.10303e-10
5.30791e-07
2.31109e-06
5.70436e-06
6.81663e-07
2.99076e-11
6.66251e-11
2.02391e-09
7.76179e-09
6.08339e-09
3.44584e-10
1.58608e-09
2.46915e-05
9.54676e-06
6.37097e-07
1.23324e-11
1.46947e-11
8.67743e-10
1.61649e-09
2.24233e-09
7.41629e-12
4.96498e-13
1.29306e-10
4.48794e-11
4.50711e-11
1.54535e-11
5.48057e-12
5.39313e-12
5.48042e-12
7.88635e-12
2.32867e-12
1.39285e-06
2.09449e-08
1.30914e-11
1.24396e-11
1.75187e-08
6.68036e-08
8.40948e-08
3.0156e-08
1.97092e-09
1.78557e-10
2.30094e-10
2.52417e-10
1.46128e-10
6.25001e-11
2.47376e-11
1.57044e-11
1.21248e-11
5.12664e-12
2.32967e-12
5.40812e-09
1.85969e-08
1.44946e-08
8.68899e-09
2.44177e-08
1.25038e-07
1.36789e-07
1.36909e-07
6.92453e-08
1.38252e-08
1.05771e-09
6.27017e-10
5.15376e-10
2.99718e-10
1.52505e-10
7.95271e-11
5.23672e-11
1.26403e-11
2.378e-12
7.77444e-08
8.41848e-08
8.3928e-08
3.57516e-08
1.43445e-08
3.87684e-08
1.16561e-07
1.21495e-07
1.22597e-07
4.38033e-08
9.60814e-09
1.28733e-09
7.82366e-10
5.59822e-10
3.62117e-10
1.82655e-10
8.22314e-11
1.77794e-11
2.47433e-12
6.95052e-10
1.15749e-08
2.16566e-08
2.41526e-08
1.43268e-08
9.81941e-10
3.01123e-09
4.42013e-08
3.38946e-08
3.20471e-08
1.40873e-08
3.08057e-09
1.00484e-09
6.23687e-10
4.67825e-10
2.48253e-10
1.25382e-10
2.22029e-11
2.60325e-12
6.93565e-10
2.99057e-10
3.01297e-10
3.00864e-10
4.50615e-10
7.60878e-10
5.20978e-10
5.15058e-10
6.58454e-10
5.18035e-10
2.81318e-09
3.27219e-09
1.36991e-09
6.67213e-10
4.46657e-10
2.4093e-10
1.24543e-10
2.19654e-11
2.47211e-12
5.4283e-10
2.97308e-10
3.05269e-10
4.76469e-10
8.25623e-10
1.3709e-09
1.50114e-09
1.23192e-09
8.84801e-10
5.22941e-10
4.76113e-10
5.45499e-10
6.93497e-10
4.96765e-10
2.96167e-10
1.6728e-10
8.20715e-11
1.27263e-11
2.24033e-12
1.33263e-10
8.69032e-11
8.88186e-11
1.58592e-10
4.01341e-10
7.89213e-10
1.42439e-09
1.52319e-09
1.47485e-09
9.60914e-10
5.39913e-10
3.32538e-10
2.78691e-10
1.9821e-10
1.46016e-10
1.04733e-10
4.51381e-11
7.058e-12
2.12313e-12
2.53391e-11
2.00491e-11
2.75889e-11
4.46927e-11
9.58745e-11
2.12035e-10
3.85723e-10
6.97729e-10
6.51564e-10
5.66349e-10
3.79415e-10
2.31333e-10
1.57751e-10
1.16218e-10
9.18223e-11
5.94237e-11
2.09932e-11
4.38422e-12
2.09155e-12
5.29538e-12
5.52843e-12
9.17986e-12
1.86804e-11
2.83735e-11
6.39155e-11
1.04031e-10
1.157e-10
9.33707e-11
9.12102e-11
8.35424e-11
7.82347e-11
7.71257e-11
6.29615e-11
4.84885e-11
2.99257e-11
7.15666e-12
3.42564e-12
2.06117e-12
1.04304e-12
1.60015e-12
2.34995e-12
3.90166e-12
9.01811e-12
2.23639e-11
3.35024e-11
3.2394e-11
3.01184e-11
3.08835e-11
3.2658e-11
3.90198e-11
3.87922e-11
3.32353e-11
2.27583e-11
8.1223e-12
3.26418e-12
2.80966e-12
1.9654e-12
3.68819e-13
4.58651e-13
7.6665e-13
1.8723e-12
3.89615e-12
7.0234e-12
8.91073e-12
1.04394e-11
1.35535e-11
1.78565e-11
2.06229e-11
2.06223e-11
1.8419e-11
1.31687e-11
6.86596e-12
2.02849e-12
1.61847e-12
2.47372e-12
1.7339e-12
1.70344e-13
1.70709e-13
2.95356e-13
8.19449e-13
1.37285e-12
2.16657e-12
3.1097e-12
4.71109e-12
6.98347e-12
9.20271e-12
9.23007e-12
8.5226e-12
4.7467e-12
2.20555e-12
8.70091e-13
4.17156e-13
1.24508e-12
2.1666e-12
1.51995e-12
4.31214e-14
4.59234e-14
9.84521e-14
2.63563e-13
4.4639e-13
6.67048e-13
1.20937e-12
2.18127e-12
3.41514e-12
3.64673e-12
3.43758e-12
2.76358e-12
8.72997e-13
1.66258e-13
6.9683e-14
2.39889e-13
1.18191e-12
1.97649e-12
1.30514e-12
8.43901e-15
1.06578e-14
2.61673e-14
6.38912e-14
1.2036e-13
2.31344e-13
4.93617e-13
9.24264e-13
1.12101e-12
1.10711e-12
9.19837e-13
2.65485e-13
3.29734e-14
2.63876e-15
3.25072e-14
2.03515e-13
9.85358e-13
1.72291e-12
1.11243e-12
1.5291e-15
2.33977e-15
6.92596e-15
1.84845e-14
4.0563e-14
9.3409e-14
2.07367e-13
2.67762e-13
2.79382e-13
2.47036e-13
7.31526e-14
9.1703e-15
6.36541e-16
9.20196e-16
2.76607e-14
1.66401e-13
7.57714e-13
1.44088e-12
9.71219e-13
2.40586e-16
4.52498e-16
1.71544e-15
6.4858e-15
1.64649e-14
3.66258e-14
4.87271e-14
5.28361e-14
4.95123e-14
1.57079e-14
2.08536e-15
1.32211e-16
2.71767e-16
9.96939e-16
2.10409e-14
1.54676e-13
6.75774e-13
1.24145e-12
8.55489e-13
3.19917e-17
8.14005e-17
4.9552e-16
2.47291e-15
6.24921e-15
8.29751e-15
9.22036e-15
9.14432e-15
3.16758e-15
4.86768e-16
2.85087e-17
4.22014e-17
3.29416e-16
1.98196e-15
1.94775e-14
1.50811e-13
6.08348e-13
1.09351e-12
5.92292e-13
3.93073e-18
1.70931e-17
1.54419e-16
6.52992e-16
9.86582e-16
1.21123e-15
1.22658e-15
6.54198e-16
2.11872e-16
2.54011e-17
2.71471e-18
4.08756e-17
4.44315e-16
3.59008e-15
2.31963e-14
1.50547e-13
5.98869e-13
7.9696e-13
4.0999e-13
4.94673e-19
4.6863e-18
4.37114e-17
8.68383e-17
1.19382e-16
1.27157e-16
1.2024e-16
3.8238e-17
5.8989e-18
3.80509e-19
1.521e-18
4.54555e-17
5.04539e-16
4.52771e-15
3.78031e-14
2.01351e-13
5.59507e-13
6.5805e-13
2.55795e-13
7.03072e-20
1.05488e-18
5.33511e-18
8.95557e-18
1.1376e-17
1.15918e-17
9.52066e-18
2.07161e-18
1.38424e-19
3.72046e-20
1.02121e-18
4.23522e-17
5.04831e-16
4.91428e-15
4.33195e-14
2.22389e-13
5.26207e-13
4.92429e-13
1.5591e-13
1.22641e-20
1.97964e-19
4.93867e-19
7.37443e-19
8.39966e-19
7.88336e-19
5.20637e-19
9.46909e-20
3.82693e-21
2.48823e-20
5.24889e-19
2.00482e-17
2.82265e-16
4.25386e-15
4.15291e-14
1.96225e-13
3.59219e-13
3.42744e-13
9.42132e-14
1.87746e-21
1.70285e-20
3.48598e-20
4.73823e-20
4.81982e-20
3.73521e-20
1.59857e-20
2.0362e-21
1.57493e-21
2.00149e-20
3.31522e-19
6.36196e-18
1.24741e-16
3.07823e-15
2.83602e-14
1.04431e-13
1.99171e-13
1.49082e-13
4.74001e-14
3.27604e-22
1.2861e-21
2.18425e-21
2.58585e-21
2.28075e-21
1.27272e-21
2.61743e-22
8.37492e-23
8.29453e-22
1.16098e-20
1.62619e-19
2.90048e-18
7.96239e-17
1.7419e-15
1.40561e-14
4.61907e-14
6.34086e-14
6.57175e-14
1.89797e-14
2.7084e-23
7.02549e-23
1.10125e-22
1.12565e-22
8.05143e-23
2.51415e-23
7.3204e-24
3.8357e-23
4.2199e-22
4.94806e-21
5.43885e-20
1.10101e-18
3.99246e-17
7.25385e-16
5.31218e-15
1.44638e-14
2.21143e-14
1.67841e-14
6.52329e-15
1.99999e-24
4.0824e-24
5.13793e-24
4.43423e-24
1.94336e-24
9.21545e-25
4.00789e-24
2.5521e-23
1.87472e-22
1.56834e-21
1.22165e-20
3.15761e-19
1.49781e-17
2.11694e-16
1.54292e-15
3.37918e-15
4.07812e-15
4.36475e-15
1.59081e-15
1.11882e-25
1.68697e-25
1.62347e-25
9.64051e-26
1.057e-25
5.36677e-25
3.36654e-24
1.87719e-23
9.05912e-23
4.59066e-22
2.58002e-21
4.92545e-20
3.60814e-18
3.9731e-17
3.38662e-16
6.35967e-16
7.85203e-16
4.45954e-16
4.14776e-16
6.2515e-27
7.22031e-27
5.65842e-27
9.1262e-27
6.44844e-26
4.54271e-25
2.74324e-24
1.35493e-23
5.41693e-23
1.8301e-22
6.38177e-22
3.89935e-21
4.39508e-19
4.45084e-18
3.23521e-17
1.04298e-16
1.52116e-16
1.12607e-16
7.47602e-17
2.94236e-28
2.74117e-28
6.74028e-28
6.04022e-27
5.46576e-26
3.68672e-25
2.01691e-24
8.74521e-24
2.99474e-23
8.39619e-23
2.20814e-22
6.0285e-22
1.12281e-20
3.71977e-19
4.60595e-18
1.06207e-17
8.79454e-18
7.59141e-18
1.89352e-17
1.44613e-29
4.14488e-29
4.85071e-28
5.34734e-27
4.49611e-26
2.72041e-25
1.27487e-24
4.92677e-24
1.49667e-23
3.6786e-23
7.71608e-23
1.44555e-22
5.21926e-22
1.66178e-20
3.48797e-19
5.94736e-19
6.43253e-19
1.33537e-18
4.49052e-18
2.30243e-30
3.08369e-29
4.70036e-28
4.83009e-27
3.42603e-26
1.74598e-25
6.91181e-25
2.23441e-24
5.81177e-24
1.27403e-23
2.49299e-23
3.86068e-23
6.05203e-23
2.52521e-22
1.11654e-20
2.69586e-20
4.69862e-20
3.38853e-19
1.6674e-18
1.91644e-30
3.60764e-29
4.60525e-28
3.67665e-27
1.95746e-26
7.71147e-26
2.41108e-25
6.13332e-25
1.38212e-24
2.83242e-24
4.80007e-24
6.67339e-24
9.95562e-24
8.06609e-24
3.96565e-23
8.11924e-22
1.2599e-20
1.05955e-19
5.32898e-19
2.71208e-30
3.78353e-29
3.39969e-28
1.90141e-27
7.80229e-27
2.52509e-26
6.67317e-26
1.4974e-25
2.86674e-25
5.40624e-25
8.63333e-25
1.2568e-24
1.65177e-24
1.13097e-24
8.63717e-24
1.99464e-22
1.95403e-21
1.91345e-20
6.62077e-20
2.63994e-30
2.27231e-29
1.21612e-28
4.63732e-28
1.38074e-27
3.48932e-27
8.1382e-27
1.63304e-26
2.87459e-26
4.35351e-26
5.96143e-26
7.64118e-26
9.48546e-26
3.7188e-26
1.59166e-25
5.48046e-24
9.07672e-23
4.84616e-22
1.52099e-22
)
;

boundaryField
{
    leftWall
    {
        type            zeroGradient;
    }
    rightWall
    {
        type            zeroGradient;
    }
    lowerWall
    {
        type            zeroGradient;
    }
    atmosphere
    {
        type            inletOutlet;
        inletValue      uniform 0;
        value           nonuniform List<scalar> 
46
(
1.22091e-11
1.61087e-11
7.77845e-12
3.70693e-12
1.24424e-12
3.7502e-13
1.07306e-13
2.85131e-14
6.9945e-15
1.52609e-15
2.89639e-16
4.85046e-17
7.10978e-18
9.03216e-19
1.04884e-19
9.64997e-21
6.97953e-22
3.85949e-23
1.57222e-24
4.46991e-26
8.12989e-28
8.48785e-30
0
0
0
0
0
0
0
0
0
0
0
0
0
0
0
0
0
0
0
0
0
0
0
0
)
;
    }
    defaultFaces
    {
        type            empty;
    }
}


// ************************************************************************* //
