/*--------------------------------*- C++ -*----------------------------------*\
| =========                 |                                                 |
| \\      /  F ield         | OpenFOAM: The Open Source CFD Toolbox           |
|  \\    /   O peration     | Version:  2312                                  |
|   \\  /    A nd           | Website:  www.openfoam.com                      |
|    \\/     M anipulation  |                                                 |
\*---------------------------------------------------------------------------*/
FoamFile
{
    version     2.0;
    format      ascii;
    arch        "LSB;label=32;scalar=64";
    class       volScalarField;
    location    "1.1";
    object      alphas;
}
// * * * * * * * * * * * * * * * * * * * * * * * * * * * * * * * * * * * * * //

dimensions      [0 0 0 0 0 0 0];

internalField   nonuniform List<scalar> 
2268
(
2
2
2
2
2
2
2
2
2
2
2
2
2
2
2
2
2
2
2
2
2
1.99996
1.99993
2
2
2
2
2
2
2
2
2
2
2
2
2
2
2
2
2
2
2
2
2
1.99998
1.99993
2
2
2
2
2
2
2
2
2
2
2
2
2
2
2
2
2
2
2
2
2
2
2
2
2
2
2
2
2
2
2
2
2
2
2
2
2
2
2
2
2
2
2
2
2
1.99999
2
2
2
2
2
2
2
2
2
2
1.95449
1.88978
1.83265
1.79309
1.77834
1.78145
1.80158
1.82669
1.84597
1.85793
1.87157
1.88999
1.9005
2
2
2
2
2
2
2
1.7686
1.35282
0.928828
0.644497
0.484484
0.385548
0.330548
0.311524
0.315285
0.34099
0.377676
0.410018
0.43108
0.459105
0.518911
0.57836
2
2
2
2
2
1.72612
1.00637
0.380723
0.0915082
0.00544018
9.06918e-06
1.39251e-05
1.89919e-05
2.48863e-05
3.515e-05
6.97621e-05
0.000130037
0.000294603
0.00051984
0.000391957
0.000417686
0.0036817
0.0624916
2
2
1.94959
1.81541
1.24468
0.367155
0.0101339
1.41758e-06
1.29482e-06
9.9277e-07
7.1711e-07
9.37718e-08
5.36977e-08
4.15776e-08
4.17068e-08
5.79801e-08
3.14519e-07
3.27424e-06
3.77576e-06
1.83605e-06
1.10268e-06
2.14906e-06
0.00249144
1.39109
1.37064
1.31801
1.1737
1.1717
1.17158
1.17095
1.2764
1.77689
1.88301
1.88543
1.88012
1.88579
1.8872
1.87311
1.87256
1.93301
1.94685
1.8657
1.19147
1.26003
1.25886
1.18398
1.16563
1.06408
1.03961
0.948643
0.856525
1.32313
1.63386
1.74481
1.8047
1.81875
1.82205
1.90765
1.94009
1.9659
1.87272
1.07643
1.226
1.01553
0.936497
0.762654
0.593047
0.504903
0.464944
0.49278
0.912532
1.62776
1.751
1.72695
1.73516
1.84235
1.84031
1.89033
1.96082
1.82283
1.1353
0.951355
0.846193
0.86806
0.730102
0.27828
0.293323
0.293065
0.578537
1.39022
1.60824
1.52743
1.50634
1.42582
1.28592
1.17275
1.28179
1.40906
1.27179
1.12752
0.740661
0.840612
1.19828
0.859974
0.288327
0.296056
0.69844
1.51434
1.60639
1.57939
1.54907
1.25426
0.859991
0.588072
0.430896
0.839563
1.1415
0.928472
0.977
0.507949
0.594395
1.26587
1.08477
0.604318
0.63886
1.46468
1.83132
1.76261
1.32694
0.79815
0.613204
0.574119
0.200673
0.208181
0.254006
0.840118
0.962965
0.955366
0.202853
0.330637
1.10566
1.16066
0.741995
0.873933
1.7802
1.77302
1.37772
0.413849
0.231501
0.397493
0.294905
0.196928
0.208133
0.185913
0.24704
1.03703
0.83326
0.140137
0.263043
0.937199
1.21041
0.452612
0.906618
1.7218
1.5929
0.881654
0.321709
0.239457
0.161925
0.169377
0.182437
0.149181
0.137598
0.162668
0.812678
2
1.45681
0.881258
0.315745
0.0320238
1.35056e-07
1.34496e-07
2.56062e-07
5.67948e-07
6.81553e-07
5.36199e-07
1.27205e-07
7.48745e-08
7.92089e-08
6.75833e-08
5.97537e-08
1.21114e-05
4.77045e-05
1.98478e-05
2.64867e-06
0.120403
0.965311
0.831089
1.52853
0.338554
9.57187e-08
3.87979e-08
4.83962e-08
1.43219e-08
1.00813e-08
2.70445e-08
1.70966e-05
1.39156e-05
7.48515e-07
1.01133e-07
8.7631e-08
8.8422e-08
0.000415873
0.001385
0.00120683
7.02934e-05
0.0062045
0.842097
1.03194
0.972916
0.405746
0.0773042
0.0429354
0.000178117
9.34973e-08
2.12118e-08
1.26051e-08
1.89868e-08
3.75345e-06
1.71363e-05
1.37135e-05
0.000396639
4.38651e-05
9.01359e-08
0.00538979
0.0106337
0.00123083
0.000728116
0.103942
0.771283
0.911735
0.775808
0.128438
0.0563235
0.00893718
0.000549424
2.31609e-07
2.30197e-07
2.18879e-07
7.1662e-08
1.51755e-07
1.54944e-07
2.45193e-07
0.00107505
0.0098193
0.0532912
0.0537419
0.0114232
0.0259021
0.0552474
0.224621
0.667121
0.739475
0.360599
0.187041
0.16346
0.297315
1.08868
0.719005
0.303707
0.00536828
0.00145501
0.0232078
0.061912
0.148382
0.216596
0.282463
0.229966
0.395002
0.250563
0.225692
0.427465
0.693277
0.931769
0.750585
0.630329
0.523586
0.512188
0.75358
0.954811
2.29998
2.2932
2.00772
0.83681
0.564924
0.604188
0.889637
1.14011
1.11299
1.03499
1.13116
1.07846
0.975073
0.951659
1.12866
1.24199
1.15445
0.952035
1.02288
1.14046
1.0078
0.999951
1.00096
1.45107
2.42286
2.30232
1.98234
1.53638
1.3655
1.50109
1.53044
2.20975
2.3528
2.19764
1.19634
1.00695
1.08499
1.2619
1.50854
1.37477
1.2823
1.30291
1.05968
1.0002
1.00018
1.00031
1.36559
2.28344
2.43677
1.8211
1.23165
1.37713
2.27331
2.8803
2.88176
2.19272
1.19022
1.01165
1.00013
1.00076
1.05624
1.45955
1.53209
1.18446
1.04849
1.00049
1.00033
1.00024
1.00036
1.40572
2.2709
1.85058
1.02562
1.23674
2.47041
2.96903
2.96876
2.12596
1.09199
1.0002
1.00022
1.00028
1.0003
1.03887
1.16507
1.1013
1.04658
1.04744
1.37812
1.86379
2.32629
2.68218
1.56764
2.17146
1.06984
1.0279
2.01033
2.96907
2.96909
2.60687
1.18638
1.00018
1.00018
1.00016
1.00012
0.999942
1.15681
1.4853
1.63067
1.89547
2.48133
2.84071
2.969
2.99997
2.99987
1.37639
1.40939
1.01602
1.08446
2.46152
2.9691
2.96884
2.06707
1.00019
1.00018
1.00018
1.16993
1.69776
2.16854
2.54797
2.77587
2.89441
2.97156
2.99996
3
3
2.99999
2.99999
1.06365
1.14164
1.01465
1.05234
2.33808
2.96909
2.94895
1.77852
1.00019
1.16443
2.2861
2.77675
2.94069
2.99909
2.99999
2.99997
2.99999
3
3
3
3
3
3
1.03263
1.00001
1.00318
1.00001
1.50389
2.93152
2.95556
1.50976
1.02617
2.27133
3
3
3
3
3
3
3
3
3
3
3
3
3
1.04178
1.00001
1.00001
1
1.00492
1.7223
2.58971
2.13204
2.08792
2.96558
3
3
3
3
3
3
3
3
3
3
3
3
3
1.00893
1
1.00001
1.00001
1.00001
1.02509
2.21513
2.99006
2.99465
3
3
2.99999
3
3
3
3
3
3
3
3
3
3
3
1.00001
0.999998
1.00001
1.00001
1.00001
1.2649
2.51206
3
3
3
2.99999
2.99999
2.99999
2.99999
3
3
3
3
3
3
3
3
3
0.999993
0.999995
1
1.00001
1.06103
2.15449
2.96385
3
3
3
2.99999
2.99999
2.99999
2.99999
3
3
3
3
3
3
3
3
3
1.01858
0.999935
0.999896
0.99983
1.40963
2.8838
2.99998
3
3
3
2.99999
2.99999
2.99999
3
3
3
3
3
3
3
3
3
3
1.36073
0.999889
0.999775
0.999627
2.33255
2.9994
3
3
3
3
3
3
3
3
3
3
3
3
3
3
3
3
3
1.40874
1.00524
0.999857
1.33421
2.81372
2.99968
3
3
3
3
3
3
3
3
3
3
3
3
3
3
3
3
3
1.40876
1.00998
1.01583
2.23968
2.99884
2.99999
3
3
3
3
3
3
3
3
3
3
3
3
3
3
3
3
3
1.31035
1.0168
2.06169
2.99785
3
3
3
3
3
3
3
3
3
3
3
3
3
3
3
3
3
3
3
1.15417
1.74207
2.99301
3
3
3
3
3
3
3
3
3
3
3
3
3
3
3
3
3
3
3
3
1.15417
2.39087
3
3
3
3
3
3
3
3
3
3
3
3
3
3
3
3
3
3
3
3
3
1.15417
2.25153
2.99999
3
3
3
3
3
3
3
3
3
3
3
3
3
3
3
3
3
3
3
3
1.15413
1.87569
2.9309
3
3
3
3
3
3
3
3
3
3
3
3
3
3
3
3
3
3
3
3
2.28679
2.92295
2.98603
3
3
3
3
3
3
3
3
3
3
3
3
3
3
3
3
3
3
3
3
2.99996
2.99996
2.99994
3
3
3
3
3
3
3
3
3
3
3
3
3
3
3
3
3
3
3
3
2.99996
2.99995
2.99998
3
3
3
3
3
3
3
3
3
3
3
3
3
3
3
3
3
3
3
3
2.99996
2.99986
2.99983
3
3
3
3
3
3
3
3
3
3
3
3
3
3
3
3
3
3
3
3
2.99995
2.99986
2.99979
2.99998
2.99999
3
3
3
3
3
3
3
3
3
3
3
3
3
3
3
3
3
3
2.99997
2.9999
2.99982
2.99995
2.99997
3
3
3
3
3
3
3
3
3
3
3
3
3
3
3
3
3
3
2.99999
2.99996
2.99999
2.99997
2.99999
3
3
3
3
3
3
3
3
3
3
3
3
3
3
3
3
3
3
3
3
3
3
3
3
3
3
3
3
3
3
3
3
3
3
3
3
3
3
3
3
3
3
3
3
3
3
3
3
3
3
3
3
3
3
3
3
3
3
3
3
3
3
3
3
3
3
3
3
3
3
3
3
3
3
3
3
3
3
3
3
3
3
3
3
3
3
3
3
3
3
3
3
3
3
3
3
3
3
3
3
3
3
3
3
3
3
3
3
3
3
3
3
3
3
3
3
3
3
3
3
3
3
3
3
3
3
3
3
3
3
3
3
3
3
3
3
3
3
3
3
3
3
3
3
3
3
3
3
3
3
3
3
3
3
3
3
3
3
3
3
3
3
3
3
3
3
3
3
3
3
3
3
3
3
3
3
3
3
3
3
3
3
3
3
3
3
3
3
3
3
3
3
3
3
3
3
3
3
3
3
3
3
3
3
3
3
3
3
3
3
3
3
3
3
3
3
3
3
3
3
3
3
3
3
3
0.573888
0.672518
0.514775
0.442222
0.17854
0.303233
0.256736
0.147479
0.061313
0.0682643
0.0625232
0.191001
0.545242
0.545182
0.557421
0.680249
0.997737
0.997805
0.99807
1.0298
1.00012
1.00013
1.00395
1.04033
1.00036
1.00036
1.00037
1.00036
1.12464
1.51005
1.90946
2.13109
2.8575
2.93157
2.97764
2.99498
2.99988
2.99992
2.99993
2.99996
3
3
3
3
3
3
3
3
3
3
3
3
3
3
3
3
3
3
3
3
3
3
3
3
3
3
3
3
3
3
3
3
3
3
3
3
3
3
3
3
3
3
3
3
3
3
3
3
3
3
3
3
3
3
3
3
3
3
3
3
3
3
3
3
3
3
3
3
3
3
3
3
3
3
3
3
3
3
3
3
3
3
3
3
3
3
3
3
3
3
3
3
3
3
3
3
3
3
3
3
3
3
3
3
3
3
3
3
3
3
3
3
3
3
3
3
3
3
3
3
3
3
3
3
3
3
3
3
0.462687
0.112706
0.514444
1.47405
0.869161
0.45203
1.02826
1.26379
1.37231
1.05257
0.880447
0.368338
0.244802
0.184801
0.174895
0.229185
0.503615
0.75543
0.646908
0.146406
0.505927
1.57737
1.99255
1.23996
0.817546
1.02274
1.18914
1.26212
1.40369
1.43217
1.32442
1.1715
1.14682
0.974655
0.947535
1.00461
0.990739
0.882429
0.564364
1.72727
2.02672
2.02683
1.83734
1.23363
1.2205
1.26616
1.26743
1.28032
1.48099
1.69404
1.79091
1.78411
1.62095
1.33106
1.10565
1.03406
1.01694
1.22948
1.97299
1.97724
1.99596
2.03701
1.73426
1.3612
1.40179
1.85648
2.22281
2.67149
2.77761
2.83701
2.80135
2.65988
2.35059
2.05301
1.81237
1.25499
1.39572
1.63219
1.47367
1.24902
1.21057
1.24044
1.46638
2.30827
2.77934
2.94788
2.97542
2.98943
2.98102
2.99717
2.99799
2.98355
2.91219
2.8971
2.57205
1.06653
1.02922
1.01186
1.02094
1.30934
2.12015
2.76182
2.98458
2.99998
2.99997
2.99998
2.99998
2.99994
2.99995
2.99996
2.99982
2.99516
2.98865
2.98454
1.00039
1.00076
1.64228
2.75585
2.98615
2.99383
2.99958
2.9994
2.99939
2.99968
2.99997
2.99996
2.99975
2.99979
2.99991
2.99979
2.99972
2.99965
2.99978
2.40687
2.79013
2.97439
2.99848
2.99999
2.99993
2.9995
2.99836
2.99836
2.99944
2.99999
2.99993
2.99915
2.99912
2.99921
2.9996
2.99928
2.99886
2.99974
2.99949
2.99968
3
3
3
2.99994
2.99874
2.99836
2.99885
3
3
3
2.99992
2.99955
2.99928
2.99798
2.99711
2.99711
2.99899
2.99999
3
3
3
3
2.99992
2.99984
2.99987
3
3
3
3
3
3
3
2.99928
2.99759
2.99737
2.99725
3
3
2.99999
2.99999
3
2.99995
2.99987
2.99975
2.99987
2.99987
2.99998
3
3
3
3
3
3
3
2.99992
3
3
2.99999
2.99998
2.99997
2.99998
2.99999
2.99974
2.99944
2.99944
2.99958
2.99995
3
3
3
3
3
3
3
3
3
3
2.99999
2.99997
2.99997
2.99999
2.99999
2.99993
2.99949
2.99947
2.9998
3
3
3
3
3
2.99999
3
3
3
3
3
3
2.99997
2.99997
2.99999
3
3
2.99981
2.99988
3
3
3
3
2.99989
2.99976
2.99998
3
3
3
3
3
2.99999
2.99997
2.99997
2.99999
3
3
3
3
3
3
3
2.99971
2.99971
2.99997
3
3
3
3
3
3
2.99999
2.99997
2.99999
3
3
3
3
3
3
3
2.99976
2.9998
2.99999
3
3
3
3
3
3
3
3
3
3
3
3
3
3
3
3
2.99998
3
3
3
3
3
3
3
3
3
3
3
3
3
3
3
3
3
3
3
3
3
3
3
3
3
3
3
3
3
3
3
3
3
3
3
3
3
3
3
3
3
3
3
3
3
3
3
3
3
3
3
3
3
3
3
3
3
2.99999
3
3
3
3
3
3
3
3
3
3
3
3
3
3
3
3
3
2.99999
2.99997
2.99999
3
3
3
3
3
3
3
3
3
3
3
3
3
3
3
3
2.99997
2.99997
3
3
3
3
3
3
3
3
3
3
3
3
3
3
3
3
3
2.99997
2.99998
3
3
3
3
3
3
3
3
3
3
3
3
3
3
3
3
3
2.99999
3
3
3
3
3
3
3
3
3
3
3
3
3
3
3
3
3
3
3
3
3
3
3
3
3
3
3
3
3
3
3
3
3
3
3
3
3
3
3
3
3
3
3
3
3
3
3
3
3
3
3
3
3
3
3
3
3
3
3
3
3
3
3
3
3
3
3
3
3
3
3
3
3
3
3
3
3
3
3
3
3
3
3
3
3
3
3
3
3
3
3
3
3
3
3
3
3
3
3
3
3
3
3
3
3
3
3
3
3
3
3
3
3
3
3
3
3
3
3
3
3
3
3
3
3
3
3
3
3
3
3
3
3
3
3
3
3
3
3
3
3
3
3
3
3
3
3
3
3
3
3
3
3
3
3
3
3
3
3
3
3
3
3
3
3
3
3
3
3
3
3
3
3
3
3
3
3
3
3
3
3
3
3
3
3
3
3
3
3
3
3
3
3
3
3
3
3
3
3
3
3
3
3
3
3
3
3
3
3
3
3
3
3
3
3
3
3
3
3
3
3
3
3
3
3
3
3
3
3
3
3
3
3
3
3
3
3
3
3
3
3
3
3
3
3
3
3
3
3
3
3
3
3
3
3
3
3
3
3
3
3
3
3
3
3
3
3
3
3
3
3
3
3
3
3
3
3
3
3
3
3
3
3
3
3
3
3
3
3
3
3
3
3
3
3
3
3
3
3
3
3
3
3
3
3
3
3
3
3
3
3
3
3
3
3
3
3
3
3
3
3
3
3
3
3
3
3
3
3
3
3
3
3
3
3
3
3
3
3
3
3
3
3
3
)
;

boundaryField
{
    leftWall
    {
        type            calculated;
        value           nonuniform List<scalar> 
50
(
2
2
2
2
2
2
2
2
2
1.52853
0.0773042
0.00893718
1.08868
2.29998
1.45107
1.36559
1.40572
1.56764
1.37639
1.06365
1.03263
1.04178
1.00893
1.00001
0.999993
1.01858
1.36073
1.40874
1.40876
1.31035
1.15417
1.15417
1.15417
1.15413
2.28679
2.99996
2.99996
2.99996
2.99995
2.99997
2.99999
3
3
3
3
3
3
3
3
3
)
;
    }
    rightWall
    {
        type            calculated;
        value           nonuniform List<scalar> 
50
(
1.8657
1.87272
1.82283
1.27179
0.928472
0.962965
1.03703
0.812678
0.646908
0.882429
1.01694
1.25499
2.57205
2.98454
2.99978
2.99974
2.99899
2.99725
2.99992
3
3
2.99998
2.99997
2.99999
3
3
3
3
2.99999
3
3
3
3
3
3
3
3
3
3
3
3
3
3
3
3
3
3
3
3
3
)
;
    }
    lowerWall
    {
        type            calculated;
        value           nonuniform List<scalar> 
62
(
2
2
2
2
2
2
2
2
2
2
2
2
2
2
2
2
2
2
2
2
2
1.99996
1.99993
1.99993
1.99993
2
1.99999
1.9005
0.57836
0.0624916
0.00249144
0.573888
0.672518
0.514775
0.442222
1.39109
1.19147
1.07643
1.1353
1.12752
0.977
0.955366
0.83326
1.39109
1.37064
1.31801
1.1737
1.1717
1.17158
1.17095
1.2764
1.77689
1.88301
1.88543
1.88012
1.88579
1.8872
1.87311
1.87256
1.93301
1.94685
1.8657
)
;
    }
    atmosphere
    {
        type            calculated;
        value           nonuniform List<scalar> 
46
(
3
3
3
3
3
3
3
3
3
3
3
3
3
3
3
3
3
3
3
3
3
3
3
3
3
3
3
3
3
3
3
3
3
3
3
3
3
3
3
3
3
3
3
3
3
3
)
;
    }
    defaultFaces
    {
        type            empty;
    }
}


// ************************************************************************* //
