/*--------------------------------*- C++ -*----------------------------------*\
| =========                 |                                                 |
| \\      /  F ield         | OpenFOAM: The Open Source CFD Toolbox           |
|  \\    /   O peration     | Version:  2312                                  |
|   \\  /    A nd           | Website:  www.openfoam.com                      |
|    \\/     M anipulation  |                                                 |
\*---------------------------------------------------------------------------*/
FoamFile
{
    version     2.0;
    format      ascii;
    arch        "LSB;label=32;scalar=64";
    class       volScalarField;
    location    "1.1";
    object      alpha.air;
}
// * * * * * * * * * * * * * * * * * * * * * * * * * * * * * * * * * * * * * //

dimensions      [0 0 0 0 0 0 0];

internalField   nonuniform List<scalar> 
2268
(
7.861e-14
4.20598e-14
2.4867e-14
1.69142e-14
1.25052e-14
9.95574e-15
8.81578e-15
9.42085e-15
1.36571e-14
2.551e-14
5.04972e-14
9.515e-14
1.60994e-13
2.20381e-13
2.30858e-13
1.62912e-13
1.34319e-13
1.31411e-13
3.51003e-13
3.83426e-14
5.82171e-14
1.59579e-14
1.63309e-14
2.55583e-13
1.28124e-13
9.05898e-14
7.92684e-14
8.98258e-14
1.02697e-13
1.1324e-13
1.4116e-13
2.25529e-13
4.00814e-13
7.38193e-13
1.22066e-12
1.7687e-12
2.17538e-12
2.29269e-12
2.39323e-12
4.75824e-12
1.35532e-11
6.6708e-11
1.65435e-13
2.73203e-12
4.55004e-13
1.09736e-12
2.64757e-12
1.29397e-12
7.60833e-13
5.62252e-13
5.84615e-13
6.48241e-13
6.53831e-13
8.58429e-13
1.23101e-12
2.02011e-12
3.17286e-12
4.65864e-12
5.29864e-12
5.84244e-12
6.59755e-12
1.29733e-11
8.68469e-11
1.08983e-09
5.91569e-09
2.23658e-13
4.78735e-11
2.35195e-10
2.18235e-11
7.01726e-12
5.11638e-12
3.54986e-12
2.65693e-12
2.08325e-12
1.80975e-12
2.00238e-12
2.71855e-12
4.39876e-12
7.84288e-12
1.95844e-11
5.9584e-11
3.94401e-12
3.88326e-12
2.76445e-11
1.42594e-11
1.73633e-11
5.21944e-09
1.62831e-07
2.4877e-06
1.6982e-09
4.80521e-09
2.18302e-11
1.16748e-11
9.47158e-12
6.01661e-12
2.75977e-12
2.28003e-12
2.22201e-12
3.85648e-12
7.98748e-12
1.71311e-11
4.46326e-11
7.82888e-11
4.4158e-09
3.6891e-08
8.27291e-08
1.02249e-07
9.79341e-08
4.69166e-08
4.87621e-09
4.8997e-09
4.64857e-05
0.000324315
0.000827949
0.000131705
1.70066e-11
2.00411e-11
2.82572e-11
2.98507e-11
2.18191e-12
2.18041e-12
2.18207e-12
2.18359e-12
2.18534e-12
4.7395e-10
1.05725e-09
6.84253e-09
9.88707e-08
2.09724e-07
2.2263e-07
2.2259e-07
1.7145e-07
1.99595e-08
5.16399e-09
4.46939e-05
0.000739614
0.00386258
0.0103054
1.97742e-11
2.60737e-11
6.46611e-11
3.25336e-10
9.90025e-10
2.67877e-09
3.76674e-09
7.11981e-09
1.17288e-08
1.15006e-08
4.7872e-09
4.49314e-09
7.125e-09
2.59409e-08
1.06118e-07
1.94518e-07
1.48771e-07
9.18143e-08
9.75603e-08
6.59695e-09
6.50331e-09
0.00100094
0.0139051
1.97781e-11
2.62164e-11
2.40272e-10
1.44815e-09
5.56101e-09
1.05417e-08
1.33091e-08
1.64485e-08
3.15119e-08
7.02471e-08
6.7639e-08
3.12496e-08
1.78929e-08
1.38558e-08
1.38981e-08
1.93054e-08
1.04306e-07
1.09077e-06
1.256e-06
4.65464e-07
9.50814e-08
6.19049e-07
0.000845163
0.0142736
0.00749787
0.00330735
0.00263149
0.00385285
0.00381248
0.00362239
0.00320701
0.000770755
8.46986e-06
0.00123052
0.00362445
0.00738373
0.00830137
0.00594834
0.00464845
0.00464993
0.00633885
0.0196062
0.0190791
0.0694048
0.0172061
0.0149043
0.0361659
0.0340757
0.0112812
0.000371385
5.04663e-07
8.28552e-06
8.41782e-06
0.000393171
0.00256352
0.0169377
0.0177131
0.00724155
0.0120408
0.0171856
0.0219811
0.0796882
0.14909
0.162438
0.146788
0.120403
0.042819
0.00535603
6.13438e-07
9.34867e-07
2.97185e-06
0.00464957
0.00781896
0.0366782
0.0286835
0.0287209
0.0316218
0.0455779
0.0438964
0.0437633
0.110942
0.180924
0.163575
0.158151
0.0812021
0.00402525
0.000483572
0.000460532
0.0101257
0.0808031
0.117463
0.0937477
0.0725932
0.00983434
0.0129806
0.0449225
0.0553786
0.0553766
0.0471164
0.139565
0.128086
0.0955034
0.182048
0.0793505
0.00177956
0.00162904
0.0322471
0.151444
0.188366
0.184266
0.173611
0.0384453
0.0049833
0.00500311
0.0157752
0.0392554
0.0422232
0.00996043
0.139885
0.0725348
0.088897
0.205667
0.145048
0.00197849
0.0146546
0.188434
0.268438
0.268395
0.236595
0.0553866
0.00230505
0.00561816
0.00814631
0.00625979
0.00247609
0.0106445
0.00328107
0.126807
0.00870628
0.0459346
0.210886
0.178531
0.0235003
0.0675327
0.273234
0.273403
0.2623
0.0430892
0.00240202
0.00223067
0.00625402
0.00752717
0.00660877
0.00246693
0.00497602
0.00420474
0.0828047
0.00906105
0.0575021
0.235156
0.240873
0.00530021
0.0569882
0.219716
0.273211
0.26626
0.0796045
0.0462983
0.00214562
0.00163751
0.00150531
0.0006139
1.30989e-13
3.1393e-07
0.00536429
1.97781e-11
1.99183e-11
7.12955e-10
9.60789e-10
3.44441e-09
3.15788e-09
2.25343e-09
6.71901e-08
1.88986e-07
2.27066e-07
1.78667e-07
4.2371e-08
2.49395e-08
2.59608e-08
2.24914e-08
1.62524e-08
3.70738e-06
7.97575e-06
6.61325e-06
8.66869e-07
0.0110111
0.171398
0.111115
3.89541e-05
8.0416e-06
2.53683e-08
4.85532e-10
4.54755e-10
1.93731e-10
4.73697e-11
6.15613e-09
5.69685e-06
4.63748e-06
2.49169e-07
3.33186e-08
2.87393e-08
2.93037e-08
1.91952e-08
1.49344e-08
1.24804e-05
4.40383e-06
4.402e-06
0.170708
0.199026
0.170789
0.000325671
0.000972
0.000137192
8.911e-09
8.43747e-09
7.06174e-09
2.3557e-09
4.68913e-11
1.24439e-06
5.70632e-06
4.56908e-06
0.000132213
1.46216e-05
2.99997e-08
0.0017966
0.00354456
0.000291497
4.01913e-05
0.033591
0.159816
0.202291
0.185158
0.00503299
0.000348753
0.00297903
0.000183059
7.3553e-08
9.64901e-08
8.12813e-08
2.55386e-08
5.05549e-08
5.02076e-08
8.17191e-08
0.000358351
0.0032731
0.0177637
0.017914
0.00311958
0.00322542
0.0182919
0.0747465
0.122969
0.139535
0.0564061
0.0344659
0.0273851
0.0317456
0.356831
0.239467
0.101236
0.00178945
0.000485005
0.00773592
0.0206231
0.0428941
0.0385261
0.070249
0.0165901
0.0166045
0.0170924
0.0602071
0.13682
0.200324
0.183629
0.116731
0.11755
0.11642
0.0744826
0.0117866
0.0197823
0.656201
0.720223
0.669206
0.278937
0.160524
0.158801
0.193541
0.204652
0.126081
0.100666
0.230178
0.233162
0.157424
0.142399
0.223599
0.226628
0.190994
0.201275
0.250411
0.236216
0.0185858
0.000103375
0.000482187
0.225683
0.711602
0.740498
0.621715
0.315462
0.200142
0.250531
0.265199
0.605069
0.684826
0.616959
0.130136
0.0035121
0.0422563
0.129657
0.259434
0.298465
0.298224
0.243921
0.0325893
0.000116894
0.000100854
0.000146659
0.183538
0.643948
0.740417
0.410549
0.115822
0.188543
0.636635
0.940158
0.941179
0.597066
0.0951582
0.00578974
9.11316e-05
9.10268e-05
0.0275667
0.246279
0.298287
0.100805
0.0241667
0.000128267
0.000100649
0.000102516
0.000178717
0.204265
0.643853
0.43004
0.0128097
0.118354
0.735183
0.98451
0.984413
0.563023
0.0459939
9.65587e-05
9.10974e-05
9.10963e-05
9.10622e-05
0.0213441
0.0860623
0.0505976
0.023172
0.0235038
0.188846
0.431809
0.663134
0.841003
0.284703
0.590271
0.0349185
0.0139451
0.505145
0.984522
0.984549
0.803438
0.0931893
9.10976e-05
9.10972e-05
9.10965e-05
9.10974e-05
9.10963e-05
0.0787608
0.242584
0.315121
0.447516
0.740449
0.92029
0.984482
0.999971
0.999872
0.188195
0.204695
0.0080119
0.0422266
0.730741
0.984541
0.98442
0.533533
9.47082e-05
9.10962e-05
9.10964e-05
0.084974
0.348894
0.584287
0.773986
0.887853
0.947043
0.985668
0.999965
0.999999
0.999999
0.999993
0.99999
0.0318235
0.0708197
0.00732511
0.0261616
0.669021
0.98454
0.974476
0.389258
9.53197e-05
0.0822169
0.643048
0.888374
0.970347
0.999543
0.999986
0.999972
0.999988
0.999998
1
1
1
1
1
0.0163144
5.45706e-06
0.00159329
1.78958e-06
0.25193
0.965746
0.977781
0.254881
0.0130838
0.635666
1
1
1
0.999999
0.999998
1
1
1
1
1
1
1
1
0.0208888
4.15175e-06
4.11153e-06
1.88126e-06
0.00245766
0.36114
0.794847
0.566021
0.543961
0.982791
1
1
1
1
1
1
1
1
1
1
1
1
1
0.00446594
2.11157e-06
4.55855e-06
4.1189e-06
4.18531e-06
0.012544
0.607559
0.995028
0.997323
1
1
0.999998
1
1
1
1
1
1
1
1
1
1
1
3.96193e-06
9.19258e-07
4.50239e-06
5.03738e-06
5.10208e-06
0.132451
0.756032
0.999998
1
0.999999
0.999997
0.999996
0.999996
0.999998
1
1
1
1
1
1
1
1
1
8.33058e-09
1.29377e-08
2.19604e-06
6.63468e-06
0.0305128
0.577243
0.981924
0.999999
1
0.999999
0.999996
0.999996
0.999996
0.999996
1
1
1
1
1
1
1
1
1
0.00931683
-2.49717e-15
1.93452e-08
1.40583e-08
0.204907
0.941974
0.999993
0.999999
1
0.999999
0.999997
0.999996
0.999996
0.999999
1
1
1
1
1
1
1
1
1
0.180385
-4.31837e-10
-3.44019e-08
-2.13504e-19
0.66646
0.9998
0.999998
1
1
1
0.999999
0.999999
0.999999
1
1
1
1
1
1
1
1
1
1
0.204376
0.00266381
2.67196e-05
0.167236
0.906961
0.999892
1
1
1
1
1
1
1
1
1
1
1
1
1
1
1
1
1
0.20438
0.0049957
0.0079309
0.619846
0.999422
0.999998
1
1
1
1
1
1
1
1
1
1
1
1
1
1
1
1
1
0.155177
0.00839821
0.530846
0.998923
1
1
1
1
1
1
1
1
1
1
1
1
1
1
1
1
1
1
1
0.0770847
0.371034
0.996503
1
1
1
1
1
1
1
0.999999
1
1
1
1
1
1
1
1
1
1
1
1
0.0770846
0.695433
1
1
1
1
1
1
1
0.999999
0.999999
0.999999
1
1
1
1
1
1
1
1
1
1
1
0.0770846
0.62577
0.999997
1
1
1
1
1
0.999999
0.999999
0.999999
1
1
1
1
1
1
1
1
1
1
1
1
0.0770846
0.437866
0.965462
1
1
1
1
1
0.999999
0.999999
1
1
1
1
1
1
1
1
1
1
1
1
1
0.643417
0.961486
0.993028
1
1
1
1
1
1
1
1
1
1
1
1
1
1
1
1
1
1
1
1
0.999983
0.999982
0.999981
1
1
1
1
1
1
1
1
1
1
1
1
1
1
1
1
1
1
1
1
0.999978
0.999975
0.999993
1
1
1
1
1
1
1
1
1
1
1
1
1
1
1
1
1
1
1
1
0.999978
0.99993
0.999916
0.999999
1
1
1
1
1
1
1
1
1
1
1
1
1
1
1
1
1
1
1
0.999977
0.99993
0.999894
0.999993
0.999993
0.999999
1
1
1
1
1
1
1
1
1
1
1
1
1
1
1
1
1
0.999984
0.999952
0.99991
0.999977
0.999984
0.999999
1
1
1
1
1
1
1
1
1
1
1
1
1
1
1
1
1
0.999996
0.99998
0.999996
0.999983
0.999993
1
1
1
1
1
1
1
1
1
1
1
1
1
1
1
1
1
1
1
0.999998
1
0.999999
1
1
1
1
1
1
1
1
1
1
1
1
1
1
1
1
1
1
1
1
1
1
1
1
1
1
1
1
1
1
1
1
1
1
1
1
1
1
1
1
1
1
1
1
1
1
1
1
1
1
1
1
1
1
1
1
1
1
1
1
1
1
1
1
1
1
1
1
1
1
1
1
1
1
1
1
1
1
1
1
1
1
1
1
1
1
1
1
1
1
1
1
1
1
1
1
1
1
1
1
1
1
1
1
1
1
1
1
1
1
1
1
1
1
1
1
1
1
1
1
1
1
1
1
1
1
1
1
1
1
1
1
1
1
1
1
1
1
1
1
1
1
1
1
1
1
1
1
1
1
1
1
1
1
1
1
1
1
1
1
1
1
1
1
1
1
1
1
1
1
1
1
1
1
1
1
1
1
1
1
1
1
1
1
1
1
1
1
1
1
1
1
1
1
1
1
1
1
1
1
1
1
1
0.0189689
0.0645453
0.0782031
0.0781454
0.0227431
0.0640632
0.0565282
0.0195533
0.00402505
0.00711301
0.00446341
0.00448172
0.00871079
2.0079e-05
4.49792e-07
0.0144313
1.78823e-07
2.82453e-07
3.12865e-07
0.0148447
9.98836e-05
0.000103741
0.00200827
0.0201664
0.000176079
0.000178776
0.000181902
0.000181278
0.062319
0.255023
0.454731
0.565542
0.928536
0.965572
0.988607
0.997276
0.999894
0.999935
0.999943
0.999965
1
0.999999
0.999998
0.999998
1
0.999999
0.999999
0.999999
1
1
1
1
1
1
1
1
1
1
1
1
1
1
1
1
1
1
1
1
1
1
1
1
1
1
1
1
1
1
1
1
1
1
1
1
1
1
1
1
1
1
1
1
1
1
1
1
1
1
1
1
1
1
1
1
1
1
1
1
1
1
1
1
1
1
1
1
1
1
1
1
1
1
1
1
1
1
1
1
1
1
1
1
1
1
1
1
1
1
1
1
1
1
1
1
1
1
1
1
1
1
1
1
1
1
1
1
1
1
1
1
1
1
1
1
1
1
1
1
0.0234498
0.0088246
0.106488
0.431028
0.185698
0.00534184
0.0107828
0.051911
0.229013
0.268528
0.25524
0.0930756
0.0474761
0.00593782
-8.68338e-06
-3.60406e-06
-6.12461e-12
1.67026e-05
0.0032671
0.0195072
0.0415375
0.371296
0.512263
0.193535
0.00527816
0.00719349
0.0578811
0.127886
0.200275
0.256398
0.280388
0.238981
0.197516
0.121289
0.0550262
0.00987081
0.00252838
0.00157876
0.0502991
0.40074
0.512263
0.512307
0.422254
0.127552
0.107569
0.127727
0.130104
0.14327
0.236545
0.339775
0.389369
0.38943
0.309019
0.163347
0.0480126
0.00918693
0.0045046
0.195516
0.512082
0.512307
0.512263
0.511561
0.359492
0.173431
0.194509
0.424537
0.621898
0.846274
0.897847
0.916578
0.898689
0.828555
0.672151
0.519153
0.396636
0.117834
0.20075
0.352053
0.283195
0.169273
0.141868
0.144796
0.233085
0.642164
0.884318
0.976911
0.990108
0.996477
0.993675
0.99848
0.997995
0.989973
0.95043
0.938891
0.776365
0.0335358
0.0203484
0.0173767
0.0192223
0.154175
0.554756
0.876278
0.991682
0.999988
0.999986
0.999989
0.999992
0.999972
0.999974
0.999959
0.99982
0.995155
0.988649
0.984545
0.000184627
0.000184135
0.316805
0.871038
0.986219
0.994021
0.999775
0.999752
0.99973
0.99985
0.999984
0.999978
0.999874
0.999893
0.999917
0.999816
0.999841
0.999825
0.999868
0.702605
0.892878
0.985028
0.998543
0.999997
0.999966
0.99975
0.999182
0.99918
0.999723
0.999995
0.999963
0.999572
0.999556
0.9996
0.999793
0.999641
0.999432
0.999868
0.999534
0.999695
0.999999
0.999998
0.999999
0.99997
0.999368
0.99918
0.999426
0.999999
1
1
0.999959
0.999774
0.999638
0.998992
0.998557
0.998553
0.999493
0.999994
0.999999
0.999999
0.999999
0.999998
0.999958
0.999921
0.999933
0.999999
0.999999
1
1
1
1
1
0.999639
0.998797
0.998685
0.998626
0.999998
0.999998
0.999997
0.999997
0.999998
0.999976
0.999933
0.999875
0.999933
0.999933
0.999992
1
1
1
1
1
1
1
0.999959
0.999999
0.999999
0.999996
0.999988
0.999987
0.999992
0.999993
0.999869
0.999719
0.999719
0.999789
0.999974
1
1
1
1
1
1
1
1
1
1
0.999995
0.999985
0.999985
0.999993
0.999997
0.999967
0.999745
0.999737
0.999898
1
1
1
1
1
0.999994
0.999998
1
1
1
1
0.999998
0.999986
0.999985
0.999994
0.999999
1
0.999906
0.999938
0.999999
1
1
1
0.999944
0.999878
0.999989
1
1
1
1
1
0.999996
0.999985
0.999985
0.999997
1
1
1
0.999999
1
1
1
0.999853
0.999853
0.999985
1
1
1
1
1
1
0.999993
0.999986
0.999996
1
1
1
1
1
1
1
0.99988
0.9999
0.999995
1
1
1
1
1
1
1
1
0.999999
1
1
1
1
1
1
1
0.999991
1
1
1
1
1
1
1
1
1
1
1
1
1
1
1
1
1
1
1
1
1
1
1
1
1
1
1
1
1
1
1
1
1
1
1
1
1
1
1
1
1
1
1
1
1
1
1
1
1
1
1
1
1
1
1
1
1
0.999996
0.999998
1
1
1
1
1
1
1
1
1
1
1
1
1
1
1
1
0.999995
0.999986
0.999997
1
1
1
1
1
1
1
1
1
1
1
1
1
1
1
1
0.999986
0.999986
0.999998
1
1
1
1
1
1
1
1
1
1
1
1
1
1
1
0.999999
0.999986
0.999989
1
1
1
1
1
1
1
1
1
1
1
1
1
1
1
1
1
0.999994
1
1
1
1
1
1
1
1
1
1
1
1
1
1
1
1
1
1
1
1
1
1
1
1
1
1
1
1
1
1
1
1
1
1
1
1
1
1
1
1
1
1
1
1
1
1
1
1
1
1
1
1
1
1
1
1
1
1
1
1
1
1
1
1
1
1
1
1
1
1
1
1
1
1
1
1
1
1
1
1
1
1
1
1
1
1
1
1
1
1
1
1
1
1
1
1
1
1
1
1
1
1
1
1
1
1
1
1
1
1
1
1
1
1
1
1
1
1
1
1
1
1
1
1
1
1
1
1
1
1
1
1
1
1
1
1
1
1
1
1
1
1
1
1
1
1
1
1
1
1
1
1
1
1
1
1
1
1
1
1
1
1
1
1
1
1
1
1
1
1
1
1
1
1
1
1
1
1
1
1
1
1
1
1
1
1
1
1
1
1
1
1
1
1
1
1
1
1
1
1
1
1
1
1
1
1
1
1
1
1
1
1
1
1
1
1
1
1
1
1
1
1
1
1
1
1
1
1
1
1
1
1
1
1
1
1
1
1
1
1
1
1
1
1
1
1
1
1
1
1
1
1
1
1
1
1
1
1
1
1
1
1
1
1
1
1
1
1
1
1
1
1
1
1
1
1
1
1
1
1
1
1
1
1
1
1
1
1
1
1
1
1
1
1
1
1
1
1
1
1
1
1
1
1
1
1
1
1
1
1
1
1
1
1
1
1
1
1
1
1
1
1
1
1
1
1
1
1
1
1
1
1
1
1
1
1
1
1
1
1
1
1
1
1
)
;

boundaryField
{
    leftWall
    {
        type            alphaContactAngle;
        thetaProperties 
6
(
(galistan air) 90 0 0 0
(oil galistan) 90 0 0 0
(water oil) 90 0 0 0
(water air) 90 0 0 0
(oil air) 90 0 0 0
(water galistan) 90 0 0 0
);
        value           nonuniform List<scalar> 
50
(
7.861e-14
2.55583e-13
2.64757e-12
7.01726e-12
1.16748e-11
1.70066e-11
1.97742e-11
1.97781e-11
1.97781e-11
3.89541e-05
0.000972
0.00297903
0.356831
0.656201
0.225683
0.183538
0.204265
0.284703
0.188195
0.0318235
0.0163144
0.0208888
0.00446594
3.96193e-06
8.33058e-09
0.00931683
0.180385
0.204376
0.20438
0.155177
0.0770847
0.0770846
0.0770846
0.0770846
0.643417
0.999983
0.999978
0.999978
0.999977
0.999984
0.999996
1
1
1
1
1
1
1
1
1
)
;
    }
    rightWall
    {
        type            alphaContactAngle;
        thetaProperties 
6
(
(galistan air) 90 0 0 0
(oil galistan) 90 0 0 0
(water oil) 90 0 0 0
(water air) 90 0 0 0
(oil air) 90 0 0 0
(water galistan) 90 0 0 0
);
        value           nonuniform List<scalar> 
50
(
0.0196062
0.0219811
0.0437633
0.0471164
0.00996043
0.00328107
0.00420474
0.00536429
0.0032671
0.00157876
0.0045046
0.117834
0.776365
0.984545
0.999868
0.999868
0.999493
0.998626
0.999959
1
0.999998
0.999989
0.999985
0.999995
1
1
1
0.999998
0.999997
0.999998
1
1
1
1
1
1
1
1
1
1
1
1
1
1
1
1
1
1
1
1
)
;
    }
    lowerWall
    {
        type            alphaContactAngle;
        thetaProperties 
6
(
(galistan air) 90 0 0 0
(oil galistan) 90 0 0 0
(water oil) 90 0 0 0
(water air) 90 0 0 0
(oil air) 90 0 0 0
(water galistan) 90 0 0 0
);
        value           nonuniform List<scalar> 
62
(
7.861e-14
4.20598e-14
2.4867e-14
1.69142e-14
1.25052e-14
9.95574e-15
8.81578e-15
9.42085e-15
1.36571e-14
2.551e-14
5.04972e-14
9.515e-14
1.60994e-13
2.20381e-13
2.30858e-13
1.62912e-13
1.34319e-13
1.31411e-13
3.51003e-13
3.83426e-14
5.82171e-14
1.59579e-14
1.63309e-14
1.63309e-14
1.09736e-12
2.18235e-11
2.18302e-11
0.000131705
0.0103054
0.0139051
0.000845163
0.0189689
0.0645453
0.0782031
0.0781454
0.0142736
0.0190791
0.0796882
0.110942
0.139565
0.139885
0.126807
0.0828047
0.0142736
0.00749787
0.00330735
0.00263149
0.00385285
0.00381248
0.00362239
0.00320701
0.000770755
8.46986e-06
0.00123052
0.00362445
0.00738373
0.00830137
0.00594834
0.00464845
0.00464993
0.00633885
0.0196062
)
;
    }
    atmosphere
    {
        type            inletOutlet;
        inletValue      uniform 1;
        value           nonuniform List<scalar> 
46
(
1
1
1
1
1
1
1
1
1
1
1
1
1
1
1
1
1
1
1
1
1
1
1
1
1
1
1
1
1
1
1
1
1
1
1
1
1
1
1
1
1
1
1
1
1
1
)
;
    }
    defaultFaces
    {
        type            empty;
    }
}


// ************************************************************************* //
