/*--------------------------------*- C++ -*----------------------------------*\
| =========                 |                                                 |
| \\      /  F ield         | OpenFOAM: The Open Source CFD Toolbox           |
|  \\    /   O peration     | Version:  2312                                  |
|   \\  /    A nd           | Website:  www.openfoam.com                      |
|    \\/     M anipulation  |                                                 |
\*---------------------------------------------------------------------------*/
FoamFile
{
    version     2.0;
    format      ascii;
    arch        "LSB;label=32;scalar=64";
    class       surfaceScalarField;
    location    "1.1";
    object      phi;
}
// * * * * * * * * * * * * * * * * * * * * * * * * * * * * * * * * * * * * * //

dimensions      [0 3 -1 0 0 0 0];

oriented        oriented;

internalField   nonuniform List<scalar> 
4432
(
3.95644e-06
-3.95644e-06
5.83746e-06
-1.88102e-06
6.26114e-06
-4.23687e-07
5.24186e-06
1.01928e-06
3.17362e-06
2.06824e-06
6.03957e-07
2.56966e-06
-1.95477e-06
2.55873e-06
-4.22293e-06
2.26816e-06
-5.9826e-06
1.75967e-06
-7.13375e-06
1.15114e-06
-7.69126e-06
5.57505e-07
-7.75042e-06
5.91632e-08
-7.45493e-06
-2.95493e-07
-6.9373e-06
-5.17628e-07
-6.30316e-06
-6.34148e-07
-5.61162e-06
-6.91537e-07
-4.86903e-06
-7.42588e-07
-4.05402e-06
-8.15017e-07
-3.1611e-06
-8.92921e-07
-2.23024e-06
-9.30865e-07
-1.3379e-06
-8.92338e-07
-4.08817e-07
-9.29083e-07
-4.08818e-07
4.22929e-06
-8.18574e-06
6.17374e-06
-3.82547e-06
6.55337e-06
-8.03321e-07
5.38854e-06
2.18412e-06
3.19602e-06
4.26076e-06
5.18641e-07
5.24704e-06
-2.14552e-06
5.22288e-06
-4.46238e-06
4.58502e-06
-6.24743e-06
3.54472e-06
-7.40264e-06
2.30636e-06
-7.94726e-06
1.10212e-06
-7.98869e-06
1.00596e-07
-7.67178e-06
-6.1241e-07
-7.13988e-06
-1.04952e-06
-6.50107e-06
-1.27296e-06
-5.81595e-06
-1.37665e-06
-5.08577e-06
-1.47277e-06
-4.28146e-06
-1.61933e-06
-3.39812e-06
-1.77626e-06
-2.48746e-06
-1.84153e-06
-1.62163e-06
-1.75817e-06
-8.06889e-07
-1.74382e-06
-1.21571e-06
4.5612e-06
-1.27469e-05
6.67219e-06
-5.93647e-06
6.98138e-06
-1.11251e-06
5.54796e-06
3.61753e-06
3.05921e-06
6.74951e-06
1.41794e-07
8.16446e-06
-2.68905e-06
8.05372e-06
-5.09759e-06
6.99356e-06
-6.93355e-06
5.38067e-06
-8.08775e-06
3.46056e-06
-8.58505e-06
1.59942e-06
-8.55238e-06
6.79257e-08
-8.16761e-06
-9.97182e-07
-7.58668e-06
-1.63045e-06
-6.92347e-06
-1.93618e-06
-6.23945e-06
-2.06067e-06
-5.51944e-06
-2.19278e-06
-4.70896e-06
-2.42981e-06
-3.79079e-06
-2.69442e-06
-2.82715e-06
-2.80518e-06
-1.90121e-06
-2.6841e-06
-1.00717e-06
-2.63786e-06
-2.22288e-06
4.51695e-06
-1.72639e-05
6.9698e-06
-8.38933e-06
7.19095e-06
-1.33366e-06
5.39363e-06
5.41485e-06
2.4851e-06
9.65802e-06
-7.6225e-07
1.14118e-05
-3.79052e-06
1.1082e-05
-6.29045e-06
9.49349e-06
-8.13185e-06
7.22207e-06
-9.18339e-06
4.5121e-06
-9.46891e-06
1.88494e-06
-9.21107e-06
-1.89918e-07
-8.68275e-06
-1.5255e-06
-8.00752e-06
-2.30568e-06
-7.30827e-06
-2.63543e-06
-6.64011e-06
-2.72884e-06
-5.95494e-06
-2.87795e-06
-5.14843e-06
-3.23633e-06
-4.17994e-06
-3.66292e-06
-3.13875e-06
-3.84636e-06
-2.13296e-06
-3.6899e-06
-1.16367e-06
-3.60715e-06
-3.38655e-06
4.15348e-06
-2.14174e-05
6.91875e-06
-1.11546e-05
6.9171e-06
-1.33202e-06
4.73957e-06
7.59237e-06
1.41826e-06
1.29793e-05
-2.04327e-06
1.48733e-05
-5.1672e-06
1.42059e-05
-7.60876e-06
1.19351e-05
-9.25619e-06
8.86951e-06
-1.0027e-05
5.28287e-06
-9.8798e-06
1.73777e-06
-9.28219e-06
-7.8753e-07
-8.51331e-06
-2.29438e-06
-7.73857e-06
-3.08042e-06
-7.02325e-06
-3.35074e-06
-6.38556e-06
-3.36653e-06
-5.74241e-06
-3.52109e-06
-4.9419e-06
-4.03684e-06
-3.95009e-06
-4.65473e-06
-2.89513e-06
-4.90132e-06
-1.93336e-06
-4.65167e-06
-1.21643e-06
-4.32409e-06
-4.60299e-06
4.0887e-06
-2.55061e-05
7.20994e-06
-1.42758e-05
6.91213e-06
-1.03421e-06
4.1907e-06
1.03138e-05
4.71506e-07
1.66985e-05
-3.13922e-06
1.84841e-05
-6.20396e-06
1.72707e-05
-7.88444e-06
1.36155e-05
-8.57276e-06
9.55784e-06
-8.32134e-06
5.03145e-06
-7.43786e-06
8.54283e-07
-6.43913e-06
-1.78626e-06
-5.67718e-06
-3.05633e-06
-5.12737e-06
-3.63023e-06
-4.66875e-06
-3.80936e-06
-4.19853e-06
-3.83676e-06
-3.59138e-06
-4.12825e-06
-2.70459e-06
-4.92362e-06
-1.61249e-06
-5.74683e-06
-6.30797e-07
-5.88302e-06
-3.23971e-08
-5.25007e-06
-3.33101e-07
-4.02339e-06
-4.9361e-06
4.7968e-06
-3.03029e-05
8.51939e-06
-1.79984e-05
7.87437e-06
-3.89191e-07
5.3491e-06
1.28391e-05
2.31073e-06
1.97369e-05
1.35135e-07
2.06597e-05
5.08666e-08
1.7355e-05
3.95865e-06
9.70775e-06
9.55426e-06
3.96223e-06
1.43082e-05
2.7748e-07
1.67084e-05
-1.54586e-06
1.69219e-05
-1.99977e-06
1.60169e-05
-2.15138e-06
1.45751e-05
-2.18841e-06
1.32876e-05
-2.52186e-06
1.28538e-05
-3.40301e-06
1.34663e-05
-4.7407e-06
1.47399e-05
-6.19721e-06
1.60677e-05
-7.07463e-06
1.67514e-05
-6.56676e-06
1.56041e-05
-4.10281e-06
1.01749e-05
1.40585e-06
5.2388e-06
6.03745e-06
-3.63403e-05
1.06354e-05
-2.25963e-05
1.12164e-05
-9.70274e-07
9.86644e-06
1.41891e-05
9.24482e-06
2.03585e-05
1.06613e-05
1.92432e-05
1.46064e-05
1.34098e-05
1.95852e-05
4.72897e-06
2.38256e-05
-2.78109e-07
2.62949e-05
-2.19184e-06
2.7404e-05
-2.65501e-06
2.77968e-05
-2.39255e-06
2.74878e-05
-1.84237e-06
2.65286e-05
-1.22923e-06
2.50105e-05
-1.00372e-06
2.33684e-05
-1.76092e-06
2.22267e-05
-3.59904e-06
2.19338e-05
-5.90436e-06
2.21806e-05
-7.32144e-06
2.23509e-05
-6.73699e-06
2.25132e-05
-4.26518e-06
1.5905e-05
8.01412e-06
2.11437e-05
1.87935e-06
-1.87936e-06
4.93132e-06
-3.05199e-06
6.06573e-06
-1.13441e-06
-3.13306e-06
9.19879e-06
-1.42809e-05
1.11478e-05
-2.53037e-05
1.10229e-05
-2.97396e-05
4.43587e-06
-2.73619e-05
-2.37765e-06
-1.9584e-05
-7.77791e-06
-1.57125e-05
-3.87152e-06
-1.19246e-05
-3.78787e-06
-6.14865e-06
-5.77599e-06
1.27546e-06
-7.42411e-06
9.32957e-06
-8.05411e-06
1.61292e-05
-6.79967e-06
2.28389e-05
-6.70965e-06
2.71278e-05
-4.28892e-06
2.47018e-05
2.42602e-06
2.47018e-05
-1.81423e-06
-6.52381e-08
-3.11262e-06
-1.75366e-06
1.03251e-07
-4.35032e-06
2.96735e-06
6.33466e-06
-1.00045e-06
1.51156e-05
-7.11956e-06
1.7142e-05
-1.07464e-05
8.06273e-06
-1.41345e-05
1.01039e-06
-2.03935e-05
-1.51895e-06
-1.96918e-05
-4.57317e-06
-1.34128e-05
-1.00669e-05
-6.9294e-06
-1.22594e-05
-2.23934e-06
-1.21142e-05
3.03054e-06
-1.3324e-05
9.11074e-06
-1.28799e-05
1.58012e-05
-1.34001e-05
2.0316e-05
-8.8038e-06
1.85445e-05
4.19757e-06
4.32463e-05
-7.61684e-06
7.55154e-06
-9.92459e-06
5.54056e-07
-3.63672e-06
-1.06382e-05
1.14549e-07
2.58339e-06
-4.45834e-06
1.96885e-05
-1.4455e-05
2.71386e-05
-2.49979e-05
1.86056e-05
-3.20223e-05
8.0348e-06
-3.14502e-05
-2.09102e-06
-2.35828e-05
-1.24406e-05
-1.54299e-05
-1.82199e-05
-9.87923e-06
-1.781e-05
-6.92203e-06
-1.50714e-05
-4.0069e-06
-1.62391e-05
-3.01703e-07
-1.65851e-05
5.25494e-06
-1.89567e-05
9.15488e-06
-1.27037e-05
9.48912e-06
3.86334e-06
5.27354e-05
-1.29488e-05
2.05001e-05
-1.27357e-05
3.40879e-07
-1.56366e-05
-7.7373e-06
-2.09928e-05
7.93949e-06
-3.20529e-05
3.07485e-05
-4.2274e-05
3.73598e-05
-4.54479e-05
2.17794e-05
-3.96972e-05
2.28408e-06
-2.8264e-05
-1.35242e-05
-1.95935e-05
-2.11112e-05
-1.34139e-05
-2.43994e-05
-1.02618e-05
-2.09621e-05
-8.82421e-06
-1.6509e-05
-8.44594e-06
-1.66174e-05
-8.88065e-06
-1.61504e-05
-7.0433e-06
-2.07941e-05
-3.45432e-06
-1.62927e-05
-1.20273e-07
5.29283e-07
5.26152e-05
-1.69624e-05
3.74626e-05
-1.8949e-05
2.32754e-06
-2.6346e-05
-3.40364e-07
-3.69502e-05
1.85437e-05
-4.94169e-05
4.32152e-05
-5.68448e-05
4.47877e-05
-5.16556e-05
1.65902e-05
-4.05723e-05
-8.79915e-06
-2.91135e-05
-2.4983e-05
-1.93986e-05
-3.08261e-05
-1.39947e-05
-2.98033e-05
-1.19144e-05
-2.30424e-05
-1.15943e-05
-1.68291e-05
-1.3677e-05
-1.45347e-05
-1.52442e-05
-1.45832e-05
-1.36271e-05
-2.24111e-05
-1.05877e-05
-1.93321e-05
-1.01186e-05
6.01737e-08
4.24966e-05
-1.5577e-05
5.30395e-05
-2.1526e-05
8.27643e-06
-3.22639e-05
1.03976e-05
-4.40891e-05
3.03688e-05
-5.38116e-05
5.29377e-05
-5.81324e-05
4.91086e-05
-5.19351e-05
1.03928e-05
-4.19632e-05
-1.8771e-05
-3.20754e-05
-3.48709e-05
-2.49345e-05
-3.7967e-05
-2.04906e-05
-3.42472e-05
-1.63996e-05
-2.71334e-05
-1.67337e-05
-1.6495e-05
-1.71741e-05
-1.40943e-05
-1.30436e-05
-1.87138e-05
-1.08314e-05
-2.46233e-05
-1.06869e-05
-1.94766e-05
-9.62527e-06
-1.00151e-06
3.28713e-05
-1.29814e-05
6.60209e-05
-2.19966e-05
1.72916e-05
-3.564e-05
2.4041e-05
-4.76734e-05
4.24023e-05
-5.35866e-05
5.88509e-05
-5.47818e-05
5.03038e-05
-4.99628e-05
5.57382e-06
-4.11826e-05
-2.75512e-05
-3.31799e-05
-4.28736e-05
-2.95714e-05
-4.15754e-05
-2.80047e-05
-3.5814e-05
-2.53082e-05
-2.98298e-05
-2.08997e-05
-2.09035e-05
-1.35536e-05
-2.14404e-05
-6.41611e-06
-2.58513e-05
-3.10716e-06
-2.79322e-05
-5.99116e-07
-2.19847e-05
6.79029e-07
-2.27966e-06
3.35503e-05
-9.94432e-06
7.59652e-05
-2.01076e-05
2.74549e-05
-3.53405e-05
3.92738e-05
-4.89703e-05
5.60321e-05
-5.17682e-05
6.16487e-05
-5.02177e-05
4.87533e-05
-4.50618e-05
4.17938e-07
-3.81786e-05
-3.44345e-05
-3.29452e-05
-4.8107e-05
-3.14585e-05
-4.30621e-05
-3.05571e-05
-3.67154e-05
-2.77453e-05
-3.26416e-05
-2.00158e-05
-2.86331e-05
-1.00508e-05
-3.14054e-05
-3.23125e-06
-3.26708e-05
3.45892e-07
-3.15094e-05
3.2679e-06
-2.49067e-05
2.39762e-06
-1.40939e-06
3.59479e-05
1.46429e-05
-5.09832e-05
3.44678e-05
-4.24212e-05
4.56606e-05
-1.21631e-05
4.29987e-05
1.68511e-05
4.29422e-05
2.0415e-05
5.06783e-05
1.15071e-05
6.0682e-05
3.40615e-06
6.76432e-05
-2.23226e-06
7.15742e-05
-4.20913e-06
7.34201e-05
-4.03775e-06
7.35657e-05
-2.80064e-06
7.22376e-05
-1.06443e-06
6.95566e-05
8.3863e-07
6.56269e-05
2.70045e-06
6.04767e-05
4.14647e-06
5.49186e-05
3.79719e-06
5.09598e-05
3.59768e-07
4.96025e-05
-4.54706e-06
4.49342e-05
-2.6532e-06
3.19687e-05
6.2285e-06
1.42856e-05
1.3418e-05
-6.30538e-07
2.29302e-05
2.92677e-05
-8.75444e-06
1.35584e-05
-6.45417e-05
1.9907e-05
-4.87699e-05
1.92011e-05
-1.14572e-05
3.50346e-05
1.01752e-06
5.62934e-05
-8.43752e-07
7.36021e-05
-5.80169e-06
8.56981e-05
-8.68984e-06
9.27593e-05
-9.29345e-06
9.65045e-05
-7.95438e-06
9.78752e-05
-5.40845e-06
9.72305e-05
-2.15596e-06
9.44611e-05
1.70501e-06
9.00027e-05
5.29699e-06
8.38418e-05
8.86138e-06
7.6391e-05
1.15972e-05
6.82946e-05
1.18936e-05
5.76205e-05
1.10339e-05
3.62857e-05
1.67877e-05
4.76845e-06
2.88641e-05
-2.3745e-05
3.4742e-05
-4.05328e-05
3.02057e-05
-4.93571e-05
3.17545e-05
3.18171e-05
-5.19065e-05
3.13397e-06
-6.76757e-05
3.28986e-06
-4.89258e-05
1.80977e-05
-2.6265e-05
4.48677e-05
-2.57525e-05
6.82741e-05
-2.42501e-05
8.45112e-05
-2.20388e-05
9.50205e-05
-1.91991e-05
0.000101254
-1.5527e-05
0.000104394
-1.10946e-05
0.00010504
-6.05414e-06
0.000103902
-1.01827e-06
0.000100825
4.78192e-06
9.559e-05
1.05324e-05
8.69054e-05
1.75459e-05
7.35539e-05
2.49488e-05
5.30546e-05
3.23929e-05
2.19921e-05
4.20963e-05
-1.29771e-05
5.1757e-05
-3.79894e-05
5.38763e-05
-5.14894e-05
4.82419e-05
-6.19292e-05
4.06455e-05
-6.65622e-05
3.63876e-05
3.49689e-05
-6.9714e-05
-1.67639e-06
-6.59993e-05
2.21524e-06
-5.28174e-05
2.44638e-05
-4.85136e-05
4.78437e-05
-4.91324e-05
6.77536e-05
-4.41601e-05
8.20797e-05
-3.6365e-05
9.12439e-05
-2.83633e-05
9.60976e-05
-2.03807e-05
9.79519e-05
-1.29489e-05
9.85403e-05
-6.64255e-06
9.45757e-05
2.94632e-06
8.45957e-05
1.47619e-05
7.05121e-05
2.4616e-05
5.08968e-05
3.71612e-05
2.64275e-05
4.9418e-05
-1.50973e-06
6.03302e-05
-3.10147e-05
7.16013e-05
-5.23707e-05
7.3113e-05
-6.35951e-05
6.51007e-05
-6.92919e-05
5.39386e-05
-7.3397e-05
4.47507e-05
-7.7086e-05
4.00766e-05
3.7842e-05
-7.99591e-05
1.09806e-05
-7.69799e-05
1.32896e-05
-5.51265e-05
2.59796e-05
-6.12037e-05
4.39012e-05
-6.70539e-05
5.91521e-05
-5.9411e-05
6.95112e-05
-4.67241e-05
7.54371e-05
-3.42893e-05
7.8333e-05
-2.32766e-05
7.53218e-05
-9.93768e-06
6.35578e-05
5.12147e-06
4.43007e-05
2.22034e-05
2.46582e-05
3.44043e-05
5.78339e-06
4.34909e-05
-1.1818e-05
5.47626e-05
-3.12779e-05
6.8878e-05
-5.29901e-05
8.20423e-05
-6.98868e-05
8.8498e-05
-7.70848e-05
8.0311e-05
-7.99874e-05
6.80033e-05
-8.2367e-05
5.63182e-05
-8.49013e-05
4.72851e-05
-8.72703e-05
4.24455e-05
4.04179e-05
-8.98462e-05
2.41508e-05
-0.000101131
2.44572e-05
-5.5433e-05
2.87655e-05
-6.5512e-05
3.73088e-05
-7.55973e-05
4.3789e-05
-6.58913e-05
4.69834e-05
-4.99186e-05
4.38326e-05
-3.11385e-05
3.16129e-05
-1.10569e-05
8.93469e-06
1.27405e-05
-1.12686e-05
2.53248e-05
-2.63201e-05
3.72549e-05
-4.1515e-05
4.95992e-05
-5.69428e-05
5.89186e-05
-7.11126e-05
6.89324e-05
-8.33404e-05
8.11058e-05
-9.29303e-05
9.16322e-05
-9.54767e-05
9.10444e-05
-9.51397e-05
7.9974e-05
-9.53952e-05
6.82587e-05
-9.66316e-05
5.75546e-05
-9.90307e-05
4.96842e-05
-9.98246e-05
4.32394e-05
3.92422e-05
-9.8649e-05
2.2879e-05
-0.00012401
3.31831e-05
-6.57372e-05
3.2559e-05
-6.4888e-05
2.68028e-05
-6.98411e-05
1.65026e-05
-5.55911e-05
3.92694e-07
-3.38087e-05
-2.13383e-05
-9.40754e-06
-4.31469e-05
1.07518e-05
-6.20179e-05
3.16115e-05
-8.41823e-05
4.74891e-05
-9.90931e-05
5.21657e-05
-0.00010848
5.89856e-05
-0.000115033
6.54725e-05
-0.000119352
7.32507e-05
-0.000120473
8.22268e-05
-0.000118189
8.93487e-05
-0.000114406
8.72605e-05
-0.000111252
7.68205e-05
-0.000109813
6.68194e-05
-0.000109552
5.72942e-05
-0.000108716
4.88477e-05
-0.000106895
4.14186e-05
3.5363e-05
-0.000103016
6.47832e-06
-0.000130488
1.7617e-05
-7.6876e-05
1.33263e-05
-6.05974e-05
-2.89543e-06
-5.36195e-05
-2.17724e-05
-3.67141e-05
-3.92066e-05
-1.63746e-05
-6.84997e-05
1.98859e-05
-0.000126183
6.8435e-05
-0.000147104
5.25324e-05
-0.000147078
4.74628e-05
-0.000148391
5.34781e-05
-0.000147687
5.82818e-05
-0.000146512
6.42979e-05
-0.00014458
7.13188e-05
-0.00014084
7.84868e-05
-0.000135003
8.35115e-05
-0.000128952
8.12096e-05
-0.000123997
7.18649e-05
-0.000120411
6.32338e-05
-0.000119116
5.59989e-05
-0.000118976
4.87079e-05
-0.000117634
4.00762e-05
3.03974e-05
-0.000112668
-6.42084e-06
-0.000124067
-8.34279e-06
-7.4954e-05
-1.77607e-05
-5.11795e-05
-3.16028e-05
-3.97774e-05
-4.3949e-05
-2.43679e-05
-7.97068e-05
1.93836e-05
-0.000171157
0.000111336
-0.000176959
7.42358e-05
-0.000167561
4.31351e-05
-0.000167447
4.73485e-05
-0.00016569
5.17212e-05
-0.000163659
5.62501e-05
-0.000160811
6.14502e-05
-0.000156719
6.72266e-05
-0.000151319
7.30873e-05
-0.000144816
7.70085e-05
-0.000137041
7.34349e-05
-0.000130274
6.50975e-05
-0.000125313
5.82731e-05
-0.000122489
5.31746e-05
-0.000120128
4.63464e-05
-0.000116646
3.65945e-05
2.42022e-05
-0.000110451
-1.94125e-05
-0.000104655
-3.19787e-05
-6.23878e-05
-4.28423e-05
-4.03159e-05
-5.34166e-05
-2.9203e-05
-6.11382e-05
-1.6646e-05
-0.000140567
9.88125e-05
-0.000177595
0.000148364
-0.000159248
5.58884e-05
-0.000163837
4.77233e-05
-0.000166836
5.03482e-05
-0.000167911
5.27965e-05
-0.000166953
5.52921e-05
-0.000164491
5.89878e-05
-0.000160002
6.27378e-05
-0.00015387
6.69551e-05
-0.000147277
7.04152e-05
-0.000139773
6.5931e-05
-0.000129565
5.48898e-05
-0.00011875
4.74576e-05
-0.000111039
4.54639e-05
-0.000113136
4.84432e-05
-0.000124615
4.80731e-05
2.09869e-05
-0.000121399
-2.63562e-05
-7.82987e-05
-4.45199e-05
-4.42242e-05
-5.81064e-05
-2.67294e-05
-7.11547e-05
-1.61546e-05
-8.93991e-05
1.59952e-06
-0.000126532
0.000135946
-0.000138417
0.000160247
-0.000143605
6.10761e-05
-0.000153589
5.77073e-05
-0.000159802
5.65604e-05
-0.000163921
5.69161e-05
-0.000164306
5.56766e-05
-0.00016179
5.64717e-05
-0.000156182
5.71296e-05
-0.000149904
6.06763e-05
-0.000144484
6.49957e-05
-0.000136069
5.75158e-05
-0.000129427
4.82479e-05
-0.000129397
4.74269e-05
-0.000125344
4.14115e-05
-0.000112838
3.59369e-05
-9.0937e-05
2.61724e-05
6.24762e-06
-7.6198e-05
-2.97323e-05
-4.85663e-05
-5.03019e-05
-2.36546e-05
-6.66035e-05
-1.04277e-05
-8.46533e-05
1.89525e-06
-0.000106895
2.38422e-05
-8.73408e-05
0.000116391
-9.92299e-05
0.000172135
-0.000126113
8.79583e-05
-0.000139718
7.13121e-05
-0.000146479
6.33217e-05
-0.000150998
6.14351e-05
-0.000154823
5.95014e-05
-0.000147239
4.8888e-05
-0.000157743
6.76335e-05
-0.000159708
6.26417e-05
-0.000155836
6.11233e-05
-0.00015047
5.21491e-05
-0.000140464
3.8242e-05
-0.000118958
2.59211e-05
-9.43212e-05
1.67751e-05
-6.80996e-05
9.71538e-06
-4.15861e-05
-3.4098e-07
-1.15207e-05
-2.38182e-05
-2.89947e-05
-1.95716e-05
-4.88068e-05
-3.84258e-06
-6.66385e-05
7.40398e-06
-8.54438e-05
2.07006e-05
-0.000106731
4.51295e-05
-8.49675e-05
9.46276e-05
-8.00075e-05
0.000167174
-0.000114599
0.000122549
-0.000125675
8.23884e-05
-0.000115717
5.33637e-05
-0.000132828
7.85453e-05
-0.000145799
7.24721e-05
-0.00016239
6.54788e-05
-0.00015979
6.50347e-05
-0.000158552
6.14038e-05
-0.000149898
5.24701e-05
-0.000133462
3.5713e-05
-0.00010848
1.326e-05
-7.96489e-05
-2.91028e-06
-5.29736e-05
-9.90008e-06
-2.97481e-05
-1.35102e-05
-1.21287e-05
-1.79605e-05
-2.21423e-05
-1.50748e-06
-2.47644e-05
5.19277e-06
-4.35413e-05
1.49343e-05
-6.08469e-05
2.47096e-05
-7.66073e-05
3.6461e-05
-8.865e-05
5.71724e-05
-8.65704e-05
9.25482e-05
-7.12543e-05
0.000151857
-0.000111397
0.000162691
-9.87177e-05
6.97099e-05
-9.22264e-05
4.68727e-05
-0.000109357
9.56758e-05
-0.000125259
8.83737e-05
-0.000138023
7.8243e-05
-0.000141834
6.88454e-05
-0.000136846
5.64165e-05
-0.000121908
3.75323e-05
-9.57492e-05
9.55371e-06
-6.72478e-05
-1.52416e-05
-4.55945e-05
-2.45637e-05
-2.83664e-05
-2.71283e-05
-1.29818e-05
-2.88949e-05
-6.73474e-07
-3.02689e-05
-3.10313e-05
8.21514e-06
-2.08592e-05
2.60519e-05
-3.69639e-05
3.10391e-05
-5.16383e-05
3.9384e-05
-6.46052e-05
4.94278e-05
-7.2117e-05
6.46842e-05
-6.64459e-05
8.68774e-05
-3.13615e-05
0.000116773
-5.27527e-05
0.000184081
-8.13817e-05
9.83376e-05
-9.16594e-05
5.71516e-05
-9.33907e-05
9.74069e-05
-0.000103066
9.80488e-05
-0.000109303
8.44797e-05
-0.000108593
6.81347e-05
-9.93697e-05
4.71932e-05
-8.01748e-05
1.83372e-05
-5.42939e-05
-1.63273e-05
-3.56919e-05
-3.38438e-05
-2.27805e-05
-3.74751e-05
-1.0824e-05
-3.90849e-05
-5.0893e-07
-3.921e-05
7.95765e-06
-3.87357e-05
-3.76886e-05
1.46146e-05
-1.70778e-05
4.31297e-05
-2.93372e-05
4.32985e-05
-4.00257e-05
5.00725e-05
-4.94532e-05
5.88553e-05
-5.46386e-05
6.98696e-05
-4.96433e-05
8.18822e-05
2.29527e-06
6.48359e-05
1.20089e-05
0.000174368
-3.89895e-06
0.000114244
-4.78818e-05
0.000101134
-6.70041e-05
0.000116529
-7.57661e-05
0.000106811
-7.73393e-05
8.60528e-05
-7.20416e-05
6.28368e-05
-6.0367e-05
3.55185e-05
-3.76618e-05
-4.36804e-06
-1.98021e-05
-3.41872e-05
-1.19247e-05
-4.17213e-05
-3.98901e-06
-4.54109e-05
3.09566e-06
-4.61696e-05
9.2878e-06
-4.54022e-05
1.45083e-05
-4.39562e-05
-4.21231e-05
1.89424e-05
-1.32935e-05
5.64232e-05
-2.07307e-05
5.07358e-05
-2.62217e-05
5.55635e-05
-3.00384e-05
6.2672e-05
-2.99327e-05
6.97639e-05
5.40758e-06
4.6542e-05
-3.24592e-06
7.3489e-05
9.84898e-06
0.000161274
-5.52594e-07
0.000124647
-3.65828e-05
0.000137164
-4.76612e-05
0.000127607
-4.94385e-05
0.000108588
-4.58772e-05
8.24913e-05
-3.58708e-05
5.28303e-05
-1.6286e-05
1.59336e-05
6.07375e-08
-2.07149e-05
2.92844e-06
-3.7055e-05
6.7885e-06
-4.55814e-05
1.04328e-05
-4.90553e-05
1.3796e-05
-4.95328e-05
1.67976e-05
-4.84039e-05
1.93847e-05
-4.65435e-05
-4.43791e-05
2.16404e-05
-9.2665e-06
6.56897e-05
-1.16004e-05
5.30697e-05
-1.14384e-05
5.54014e-05
-9.87839e-06
6.1112e-05
1.16555e-05
4.82301e-05
5.40981e-05
4.09887e-06
2.56286e-05
0.000101957
-1.24571e-07
0.000187027
-2.36325e-05
0.000148156
-3.32592e-05
0.00014679
-3.3025e-05
0.000127373
-2.72276e-05
0.00010279
-1.70153e-05
7.22788e-05
-2.24948e-06
3.80643e-05
1.22868e-05
1.39726e-06
1.69964e-05
-2.54246e-05
1.93433e-05
-3.9402e-05
2.05372e-05
-4.67755e-05
2.12613e-05
-4.97794e-05
2.18061e-05
-5.00776e-05
2.22828e-05
-4.88807e-05
2.27223e-05
-4.6983e-05
-4.48221e-05
2.31649e-05
-4.44929e-06
7.0139e-05
-1.93704e-06
5.05574e-05
2.03159e-06
5.14328e-05
1.47573e-05
4.83863e-05
4.01886e-05
2.27987e-05
1.19793e-05
3.23071e-05
-1.21056e-05
0.000126042
-1.39101e-05
0.000188832
-2.30518e-05
0.000157297
-2.36009e-05
0.000147339
-1.72105e-05
0.000120982
-5.83312e-06
9.14125e-05
8.2272e-06
5.82183e-05
2.23239e-05
2.39674e-05
3.03848e-05
-6.66369e-06
3.18383e-05
-2.68782e-05
3.15278e-05
-3.90916e-05
3.03217e-05
-4.55694e-05
2.88014e-05
-4.82592e-05
2.72997e-05
-4.85759e-05
2.59681e-05
-4.75491e-05
2.48503e-05
-4.58654e-05
-4.39253e-05
2.39533e-05
9.63796e-07
6.91751e-05
6.44688e-06
4.50743e-05
1.52067e-05
4.2673e-05
3.6718e-05
2.6875e-05
6.73674e-05
-7.85138e-06
8.16864e-06
9.15058e-05
-2.726e-05
0.000161472
-1.78854e-05
0.000179458
-1.93927e-05
0.000158804
-1.26573e-05
0.000140603
-1.15946e-06
0.000109484
1.2688e-05
7.75648e-05
2.62405e-05
4.46656e-05
3.63769e-05
1.38309e-05
4.05243e-05
-1.08112e-05
4.08015e-05
-2.71555e-05
3.90339e-05
-3.7324e-05
3.63869e-05
-4.29225e-05
3.35008e-05
-4.53731e-05
3.07358e-05
-4.5811e-05
2.82638e-05
-4.50772e-05
2.61332e-05
-4.37347e-05
-4.21257e-05
2.43333e-05
6.19767e-06
6.29775e-05
1.33178e-05
3.79542e-05
3.03603e-05
2.56304e-05
0.000105625
-4.83897e-05
2.98282e-05
6.79426e-05
-1.1712e-05
0.000133047
-2.68613e-05
0.000176624
-1.97242e-05
0.000172321
-1.49959e-05
0.000154075
-2.60773e-06
0.000128215
1.18668e-05
9.50092e-05
2.61531e-05
6.32782e-05
3.78669e-05
3.29517e-05
4.48674e-05
6.83028e-06
4.68958e-05
-1.28396e-05
4.59106e-05
-2.61703e-05
4.3218e-05
-3.46314e-05
3.97666e-05
-3.94711e-05
3.6147e-05
-4.17536e-05
3.26986e-05
-4.23626e-05
2.95855e-05
-4.1964e-05
2.68574e-05
-4.10068e-05
-3.97735e-05
2.45051e-05
9.91454e-06
5.30629e-05
2.20866e-05
2.57821e-05
7.6015e-05
-2.82985e-05
1.45133e-05
1.31088e-05
-2.447e-05
0.000106926
-5.32086e-05
0.000161789
-3.39544e-05
0.00015737
-2.24263e-05
0.000160792
-9.97102e-06
0.00014162
6.64681e-06
0.000111597
2.20964e-05
7.95593e-05
3.5353e-05
5.00214e-05
4.46787e-05
2.36259e-05
4.92897e-05
2.21911e-06
4.99655e-05
-1.35154e-05
4.82059e-05
-2.44107e-05
4.5066e-05
-3.14916e-05
4.12895e-05
-3.56947e-05
3.73783e-05
-3.78424e-05
3.36381e-05
-3.86224e-05
3.02262e-05
-3.85522e-05
2.71974e-05
-3.79779e-05
-3.71252e-05
2.45489e-05
1.24005e-05
4.06624e-05
2.64664e-05
1.1716e-05
4.52922e-07
-2.28572e-06
-6.13469e-05
7.49073e-05
-7.2836e-05
0.000118416
-4.96339e-05
0.000138587
-3.65969e-05
0.000144333
-2.05881e-05
0.000144784
-2.8837e-06
0.000123915
1.49792e-05
9.37336e-05
2.97366e-05
6.48018e-05
4.10417e-05
3.87162e-05
4.80433e-05
1.66242e-05
5.0941e-05
-6.78685e-07
5.08043e-05
-1.33787e-05
4.86944e-05
-2.23009e-05
4.54257e-05
-2.82228e-05
4.16027e-05
-3.18717e-05
3.76576e-05
-3.38973e-05
3.38669e-05
-3.48317e-05
3.03776e-05
-3.50629e-05
2.72479e-05
-3.48484e-05
-3.43631e-05
2.44857e-05
1.12921e-05
2.93704e-05
1.71491e-05
5.85883e-06
-6.15307e-06
2.10147e-05
-3.9465e-05
0.000108219
-4.89477e-05
0.000127899
-3.97269e-05
0.000129367
-3.0249e-05
0.000134855
-1.36959e-05
0.00012823
5.40196e-06
0.000104817
2.19959e-05
7.71395e-05
3.50209e-05
5.17767e-05
4.41324e-05
2.96046e-05
4.92643e-05
1.14922e-05
5.10476e-05
-2.462e-06
5.04167e-05
-1.27479e-05
4.81426e-05
-2.00267e-05
4.48754e-05
-2.49556e-05
4.11311e-05
-2.81275e-05
3.72869e-05
-3.0053e-05
3.35848e-05
-3.11296e-05
3.01572e-05
-3.16354e-05
2.70593e-05
-3.17504e-05
-3.16053e-05
2.43013e-05
7.98607e-06
2.13843e-05
9.96696e-06
3.87712e-06
2.69792e-05
4.00252e-06
-1.04025e-05
0.000145602
-2.62143e-05
0.000143711
-2.77776e-05
0.00013093
-2.00719e-05
0.00012715
-3.73413e-06
0.000111893
1.36064e-05
8.74769e-05
2.78034e-05
6.29425e-05
3.85468e-05
4.10332e-05
4.56409e-05
2.25104e-05
4.93594e-05
7.77364e-06
5.03529e-05
-3.45546e-06
4.93394e-05
-1.17344e-05
4.69484e-05
-1.76358e-05
4.37289e-05
-2.1736e-05
4.01248e-05
-2.45235e-05
3.6457e-05
-2.63853e-05
3.29279e-05
-2.76004e-05
2.96451e-05
-2.83525e-05
2.66574e-05
-2.87629e-05
-2.89273e-05
2.39794e-05
9.73564e-06
1.16487e-05
4.80897e-05
-3.4477e-05
2.45521e-05
2.75403e-05
2.10999e-06
0.000168044
-1.44526e-05
0.000160274
-1.74853e-05
0.000133963
-9.17035e-06
0.000118835
6.06698e-06
9.66553e-05
2.05551e-05
7.29886e-05
3.22837e-05
5.12139e-05
4.0857e-05
3.24598e-05
4.62574e-05
1.71099e-05
4.88394e-05
5.19162e-06
4.91574e-05
-3.77347e-06
4.77989e-05
-1.03759e-05
4.53116e-05
-1.51485e-05
4.21696e-05
-1.85939e-05
3.87458e-05
-2.10996e-05
3.52993e-05
-2.29388e-05
3.19874e-05
-2.42885e-05
2.88953e-05
-2.52604e-05
2.60625e-05
-2.593e-05
-2.63671e-05
2.35021e-05
2.96243e-05
-1.79753e-05
3.59943e-05
-4.0847e-05
7.02147e-06
5.65123e-05
-1.16927e-05
0.000186758
-1.50228e-05
0.000163605
-1.19214e-05
0.000130862
-4.33797e-07
0.000107347
1.35868e-05
8.26347e-05
2.59152e-05
6.06602e-05
3.55668e-05
4.15622e-05
4.23133e-05
2.57132e-05
4.62859e-05
1.31373e-05
4.78701e-05
3.60731e-06
4.75637e-05
-3.46707e-06
4.58963e-05
-8.70851e-06
4.33492e-05
-1.26013e-05
4.03212e-05
-1.55659e-05
3.71087e-05
-1.78872e-05
3.39077e-05
-1.97378e-05
3.08345e-05
-2.12152e-05
2.79508e-05
-2.23767e-05
2.5289e-05
-2.32683e-05
-2.39421e-05
2.2864e-05
7.19894e-06
-2.51739e-05
-3.25202e-05
-1.128e-06
-7.42921e-05
9.8284e-05
-4.90522e-05
0.000161518
-2.46239e-05
0.000139177
-1.01296e-05
0.000116367
5.63123e-06
9.15861e-05
1.91804e-05
6.90855e-05
2.99959e-05
4.98446e-05
3.79335e-05
3.36246e-05
4.31028e-05
2.05439e-05
4.57992e-05
1.04409e-05
4.64732e-05
2.93326e-06
4.56124e-05
-2.60634e-06
4.37019e-05
-6.79798e-06
4.11529e-05
-1.00523e-05
3.82787e-05
-1.26916e-05
3.5298e-05
-1.49065e-05
3.23494e-05
-1.67891e-05
2.95145e-05
-1.83802e-05
2.68413e-05
-1.97035e-05
2.43554e-05
-2.07824e-05
-2.16546e-05
2.20678e-05
-2.29363e-05
-2.23782e-06
-6.24937e-05
3.84294e-05
-7.01716e-05
0.000105962
-4.58585e-05
0.000137205
-2.22439e-05
0.000115563
-3.41567e-06
9.75392e-05
1.21609e-05
7.60095e-05
2.42961e-05
5.69502e-05
3.33973e-05
4.07434e-05
3.96278e-05
2.7394e-05
4.32872e-05
1.68845e-05
4.47953e-05
8.93275e-06
4.46614e-05
3.06712e-06
4.33524e-05
-1.29734e-06
4.12904e-05
-4.73596e-06
3.88038e-05
-7.56559e-06
3.61164e-05
-1.00043e-05
3.33748e-05
-1.21648e-05
3.06722e-05
-1.40865e-05
2.80664e-05
-1.57744e-05
2.55928e-05
-1.72299e-05
2.32748e-05
-1.84644e-05
-1.95051e-05
2.11254e-05
-2.32803e-05
2.10423e-05
-4.6978e-05
6.21271e-05
-4.93269e-05
0.000108311
-2.80432e-05
0.000115922
-1.08496e-05
9.83692e-05
6.2069e-06
8.04827e-05
1.92799e-05
6.29365e-05
2.91645e-05
4.70656e-05
3.61988e-05
3.3709e-05
4.06241e-05
2.29687e-05
4.28169e-05
1.46916e-05
4.32562e-05
8.49342e-06
4.24544e-05
3.86891e-06
4.08432e-05
3.13829e-07
3.87364e-05
-2.62915e-06
3.637e-05
-5.19911e-06
3.38883e-05
-7.52257e-06
3.13811e-05
-9.65763e-06
2.89087e-05
-1.1614e-05
2.65134e-05
-1.3379e-05
2.42266e-05
-1.49431e-05
2.20687e-05
-1.63064e-05
-1.74867e-05
2.00502e-05
-1.84837e-05
3.95258e-05
-3.04737e-05
7.41171e-05
-2.95024e-05
0.00010734
-1.09687e-05
9.7388e-05
2.45992e-06
8.49406e-05
1.55322e-05
6.74104e-05
2.57009e-05
5.27679e-05
3.31204e-05
3.96462e-05
3.80326e-05
2.87968e-05
4.07265e-05
2.02747e-05
4.16222e-05
1.37959e-05
4.12051e-05
8.91047e-06
3.99344e-05
5.13963e-06
3.81711e-05
2.07722e-06
3.61107e-05
-5.68798e-07
3.39031e-05
-2.99144e-06
3.16304e-05
-5.24989e-06
2.93433e-05
-7.37048e-06
2.70822e-05
-9.35288e-06
2.48798e-05
-1.11765e-05
2.27626e-05
-1.28259e-05
2.07502e-05
-1.42939e-05
-1.55914e-05
1.88549e-05
-1.26448e-05
5.21706e-05
-1.79083e-05
7.93806e-05
-1.28936e-05
0.000102325
1.7513e-06
8.27432e-05
1.3213e-05
7.34789e-05
2.28219e-05
5.78015e-05
3.03782e-05
4.52116e-05
3.55644e-05
3.44601e-05
3.8592e-05
2.57691e-05
3.98282e-05
1.90385e-05
3.97241e-05
1.39e-05
3.87261e-05
9.90849e-06
3.71998e-05
6.66592e-06
3.53969e-05
3.88016e-06
3.34569e-05
1.37119e-06
3.1431e-05
-9.65497e-07
2.93611e-05
-3.17991e-06
2.72773e-05
-5.2867e-06
2.52072e-05
-7.28272e-06
2.31785e-05
-9.14775e-06
2.12177e-05
-1.0865e-05
1.93419e-05
-1.24181e-05
-1.38081e-05
1.75586e-05
-7.93513e-06
6.01057e-05
-8.53482e-06
7.99803e-05
2.80763e-07
9.35093e-05
1.05638e-05
7.24601e-05
2.04818e-05
6.35609e-05
2.77536e-05
5.05299e-05
3.30613e-05
3.99039e-05
3.6334e-05
3.11874e-05
3.78407e-05
2.42624e-05
3.80011e-05
1.88782e-05
3.72476e-05
1.46535e-05
3.59433e-05
1.12128e-05
3.43445e-05
8.26465e-06
3.26051e-05
5.61961e-06
3.08034e-05
3.1729e-06
2.89625e-05
8.75473e-07
2.70882e-05
-1.30562e-06
2.51926e-05
-3.39104e-06
2.32957e-05
-5.38576e-06
2.14258e-05
-7.27788e-06
1.96047e-05
-9.04387e-06
1.78517e-05
-1.0665e-05
-1.21323e-05
1.61759e-05
-4.16917e-06
6.42749e-05
-1.36423e-06
7.71754e-05
9.59868e-06
8.25464e-05
1.71402e-05
6.49186e-05
2.49816e-05
5.57196e-05
3.03216e-05
4.51898e-05
3.37668e-05
3.64588e-05
3.55279e-05
2.94263e-05
3.59529e-05
2.38375e-05
3.54493e-05
1.93817e-05
3.43743e-05
1.57286e-05
3.2986e-05
1.26012e-05
3.14428e-05
9.80779e-06
2.98279e-05
7.23455e-06
2.81784e-05
4.8224e-06
2.65092e-05
2.54474e-06
2.48137e-05
3.89921e-07
2.30934e-05
-1.67072e-06
2.13563e-05
-3.64862e-06
1.96284e-05
-5.54992e-06
1.79374e-05
-7.35285e-06
1.63001e-05
-9.02781e-06
-1.05554e-05
1.47232e-05
-8.80627e-07
6.51555e-05
4.09074e-06
7.2204e-05
1.48065e-05
7.18306e-05
2.11404e-05
5.85848e-05
2.69326e-05
4.99274e-05
3.06528e-05
4.14697e-05
3.2703e-05
3.44087e-05
3.34406e-05
2.86887e-05
3.32368e-05
2.40413e-05
3.2433e-05
2.01855e-05
3.12868e-05
1.68748e-05
2.99619e-05
1.39261e-05
2.85472e-05
1.12225e-05
2.70846e-05
8.69717e-06
2.55915e-05
6.31547e-06
2.40762e-05
4.06006e-06
2.2544e-05
1.92221e-06
2.09802e-05
-1.069e-07
1.93917e-05
-2.06009e-06
1.77972e-05
-3.95547e-06
1.62237e-05
-5.77935e-06
1.46902e-05
-7.49419e-06
-9.07259e-06
1.32074e-05
1.96769e-06
6.31878e-05
8.09398e-06
6.60777e-05
1.70744e-05
6.28502e-05
2.24808e-05
5.31783e-05
2.66666e-05
4.57415e-05
2.91629e-05
3.89734e-05
3.03143e-05
3.32573e-05
3.04977e-05
2.85053e-05
3.00405e-05
2.44986e-05
2.91957e-05
2.10303e-05
2.81323e-05
1.79382e-05
2.69477e-05
1.51107e-05
2.56913e-05
1.24789e-05
2.43861e-05
1.00024e-05
2.30432e-05
7.65842e-06
2.16696e-05
5.43363e-06
2.02724e-05
3.31946e-06
1.88555e-05
1.31001e-06
1.74067e-05
-6.11245e-07
1.59362e-05
-2.48501e-06
1.4472e-05
-4.31509e-06
1.30394e-05
-6.06162e-06
-7.67443e-06
1.16412e-05
3.99194e-06
5.91958e-05
1.02154e-05
5.98542e-05
1.72554e-05
5.58102e-05
2.17028e-05
4.8731e-05
2.47554e-05
4.26889e-05
2.64615e-05
3.72673e-05
2.71454e-05
3.25734e-05
2.71294e-05
2.85214e-05
2.66639e-05
2.49641e-05
2.59223e-05
2.17718e-05
2.50118e-05
1.88487e-05
2.39924e-05
1.61302e-05
2.28957e-05
1.35755e-05
2.17391e-05
1.1159e-05
2.05337e-05
8.86383e-06
1.92886e-05
6.67878e-06
1.80125e-05
4.5955e-06
1.6715e-05
2.6075e-06
1.53946e-05
7.09204e-07
1.40433e-05
-1.13373e-06