/*--------------------------------*- C++ -*----------------------------------*\
| =========                 |                                                 |
| \\      /  F ield         | OpenFOAM: The Open Source CFD Toolbox           |
|  \\    /   O peration     | Version:  2312                                  |
|   \\  /    A nd           | Website:  www.openfoam.com                      |
|    \\/     M anipulation  |                                                 |
\*---------------------------------------------------------------------------*/
FoamFile
{
    version     2.0;
    format      ascii;
    arch        "LSB;label=32;scalar=64";
    class       volVectorField;
    location    "1.1";
    object      U;
}
// * * * * * * * * * * * * * * * * * * * * * * * * * * * * * * * * * * * * * //

dimensions      [0 1 -1 0 0 0 0];

internalField   nonuniform List<vector> 
2268
(
(0.0228815 -0.00970565 0)
(0.0619039 -0.00416546 0)
(0.0702364 -0.000474681 0)
(0.0693415 0.00355886 0)
(0.0490718 0.00646325 0)
(0.0218919 0.00769618 0)
(-0.00888342 0.00742925 0)
(-0.0366962 0.00638775 0)
(-0.0594694 0.00481501 0)
(-0.0758086 0.00303691 0)
(-0.085286 0.00134424 0)
(-0.0885657 -4.85285e-05 0)
(-0.0870276 -0.00109037 0)
(-0.0822589 -0.00173988 0)
(-0.0756182 -0.00209004 0)
(-0.0680199 -0.00226586 0)
(-0.059814 -0.00241267 0)
(-0.050925 -0.00261069 0)
(-0.0412343 -0.00282194 0)
(-0.0307588 -0.00291932 0)
(-0.0194329 -0.00277471 0)
(-0.0117796 -0.00283719 0)
(0.00268162 0.000278562 0)
(0.0248114 -0.0328423 0)
(0.0660315 -0.0157834 0)
(0.0738902 -0.00385774 0)
(0.0719233 0.00818303 0)
(0.0499636 0.0166246 0)
(0.0211054 0.0207358 0)
(-0.01076 0.0207864 0)
(-0.0392132 0.0184318 0)
(-0.0623912 0.014393 0)
(-0.07888 0.0094905 0)
(-0.088297 0.00466438 0)
(-0.0914078 0.000643681 0)
(-0.0896453 -0.00224832 0)
(-0.0846563 -0.00403349 0)
(-0.0778913 -0.00497135 0)
(-0.0702928 -0.005427 0)
(-0.0621887 -0.00583679 0)
(-0.0534256 -0.0064325 0)
(-0.0438315 -0.00707766 0)
(-0.0334986 -0.00738476 0)
(-0.0227483 -0.00710616 0)
(-0.0148129 -0.0072754 0)
(-0.00322427 -0.00451853 0)
(0.0256777 -0.0564263 0)
(0.0720947 -0.0259976 0)
(0.0796631 -0.00494884 0)
(0.0755629 0.0158735 0)
(0.0499831 0.029988 0)
(0.0176794 0.0365886 0)
(-0.0162996 0.0362893 0)
(-0.0460515 0.0316178 0)
(-0.0700239 0.0242701 0)
(-0.0867796 0.0155528 0)
(-0.0959054 0.00711039 0)
(-0.0983128 0.00039559 0)
(-0.0957019 -0.00415651 0)
(-0.0900143 -0.00706674 0)
(-0.0828167 -0.00853486 0)
(-0.0750907 -0.00918218 0)
(-0.0670679 -0.00981853 0)
(-0.0583471 -0.010869 0)
(-0.0485236 -0.0120068 0)
(-0.0377056 -0.0124315 0)
(-0.0265611 -0.0117529 0)
(-0.017196 -0.0114146 0)
(-0.00535986 -0.00879617 0)
(0.0206128 -0.082165 0)
(0.0755693 -0.0387676 0)
(0.0832799 -0.00698588 0)
(0.07663 0.0235432 0)
(0.0457609 0.0431245 0)
(0.00878859 0.0516549 0)
(-0.027997 0.0508368 0)
(-0.0594049 0.0442453 0)
(-0.083902 0.0343378 0)
(-0.100046 0.0225034 0)
(-0.107303 0.0109183 0)
(-0.107097 0.0011906 0)
(-0.102277 -0.00595469 0)
(-0.0952208 -0.0101263 0)
(-0.087315 -0.0119888 0)
(-0.0795171 -0.0126546 0)
(-0.0718312 -0.0135125 0)
(-0.0633732 -0.0152029 0)
(-0.053294 -0.0169845 0)
(-0.0417686 -0.0177141 0)
(-0.0300088 -0.0169437 0)
(-0.0190559 -0.0166174 0)
(-0.00680602 -0.0149321 0)
(0.0119215 -0.105484 0)
(0.0757221 -0.0524927 0)
(0.0817668 -0.0075841 0)
(0.0720736 0.0357899 0)
(0.0358765 0.0628372 0)
(-0.00474557 0.0737525 0)
(-0.0435121 0.0713787 0)
(-0.0752194 0.0597404 0)
(-0.0982476 0.0428431 0)
(-0.111609 0.0237698 0)
(-0.114379 0.00727304 0)
(-0.109351 -0.00545782 0)
(-0.101253 -0.0137731 0)
(-0.0924571 -0.0179109 0)
(-0.0840776 -0.0192315 0)
(-0.0764475 -0.019124 0)
(-0.069211 -0.0192158 0)
(-0.0610248 -0.0204817 0)
(-0.0507873 -0.022344 0)
(-0.0389766 -0.0234806 0)
(-0.0276848 -0.0230472 0)
(-0.0171642 -0.0224361 0)
(-0.00946967 -0.0217892 0)
(0.00587703 -0.125704 0)
(0.0797127 -0.0674433 0)
(0.0838084 -0.00592177 0)
(0.0698605 0.0488792 0)
(0.0262096 0.0785165 0)
(-0.0178989 0.0850066 0)
(-0.0574793 0.0750153 0)
(-0.083315 0.0579869 0)
(-0.0957959 0.0410635 0)
(-0.0968661 0.0240113 0)
(-0.089089 0.00675891 0)
(-0.0779864 -0.0072647 0)
(-0.0679805 -0.0157764 0)
(-0.06084 -0.01962 0)
(-0.0556617 -0.0205515 0)
(-0.0506386 -0.0202857 0)
(-0.0446002 -0.0213555 0)
(-0.0359945 -0.0249116 0)
(-0.0246147 -0.0289241 0)
(-0.0122841 -0.0301154 0)
(-0.00299507 -0.0282751 0)
(0.000944553 -0.0286299 0)
(-0.00713963 -0.0317645 0)
(0.0049495 -0.147774 0)
(0.0955451 -0.084163 0)
(0.0960833 -0.00594234 0)
(0.0787453 0.0629225 0)
(0.0404784 0.0961087 0)
(0.00802743 0.100883 0)
(-0.00921937 0.0939436 0)
(0.00941628 0.0750997 0)
(0.0791342 0.0526115 0)
(0.153951 0.0256718 0)
(0.185334 0.00441804 0)
(0.195542 -0.00530337 0)
(0.191455 -0.0106896 0)
(0.176581 -0.0139086 0)
(0.15853 -0.0165268 0)
(0.147626 -0.0197688 0)
(0.149016 -0.0243524 0)
(0.160786 -0.0301168 0)
(0.176192 -0.0346149 0)
(0.189484 -0.0345202 0)
(0.186836 -0.0229739 0)
(0.157155 -0.000830475 0)
(0.0739583 -0.00732471 0)
(0.0042011 -0.18397 0)
(0.120058 -0.105579 0)
(0.118584 0.00647014 0)
(0.119827 0.0735816 0)
(0.0944271 0.109327 0)
(0.0970409 0.119819 0)
(0.15697 0.0976708 0)
(0.200587 0.0399748 0)
(0.253772 7.21279e-05 0)
(0.290457 -0.0168673 0)
(0.309232 -0.0168079 0)
(0.317416 -0.0146547 0)
(0.318039 -0.0120652 0)
(0.311084 -0.00935079 0)
(0.296608 -0.00904306 0)
(0.276961 -0.0138032 0)
(0.25896 -0.0230874 0)
(0.250506 -0.0329269 0)
(0.251609 -0.0362409 0)
(0.25606 -0.034751 0)
(0.249645 -0.0287276 0)
(0.23843 0.00943689 0)
(0.141344 0.057375 0)
(-0.0173829 -0.0127314 0)
(0.0567264 -0.00432647 0)
(0.0743984 -0.000706713 0)
(0.0334601 0.0291284 0)
(-0.101541 0.0300998 0)
(-0.221117 0.0284693 0)
(-0.347745 0.00754888 0)
(-0.352726 -0.0241213 0)
(-0.239201 -0.0348592 0)
(-0.18876 -0.0215726 0)
(-0.159632 -0.010434 0)
(-0.111638 -0.0139829 0)
(-0.0401668 -0.026803 0)
(0.0688095 -0.0317439 0)
(0.144162 -0.0247608 0)
(0.22224 -0.0217236 0)
(0.28768 -0.0148185 0)
(0.308388 0.0038964 0)
(0.306982 0.0693304 0)
(-0.0177856 -0.0102333 0)
(-0.0244672 -0.0222891 0)
(-0.036425 -0.00793921 0)
(0.0328058 0.050244 0)
(0.020934 0.0713605 0)
(-0.0441505 0.0704056 0)
(-0.107474 0.0329323 0)
(-0.1331 -0.0032313 0)
(-0.207269 -0.0287857 0)
(-0.240364 -0.0125023 0)
(-0.190778 -0.0243465 0)
(-0.117635 -0.0405613 0)
(-0.0528334 -0.0487778 0)
(0.00485771 -0.0539069 0)
(0.0669331 -0.0487835 0)
(0.138294 -0.0502079 0)
(0.211446 -0.0340345 0)
(0.225231 0.012879 0)
(0.247035 0.150016 0)
(-0.0177014 0.0134239 0)
(-0.134791 0.00248129 0)
(-0.0876736 -0.0405951 0)
(-0.00319951 0.00202723 0)
(-0.00317318 0.0576465 0)
(-0.0918938 0.0912699 0)
(-0.214473 0.0603665 0)
(-0.333326 0.02246 0)
(-0.397824 0.0122354 0)
(-0.317788 -0.0345406 0)
(-0.218342 -0.0713039 0)
(-0.143168 -0.0785108 0)
(-0.0902634 -0.0719518 0)
(-0.059999 -0.07857 0)
(-0.0303657 -0.081544 0)
(0.0224759 -0.0865846 0)
(0.0931663 -0.0556859 0)
(0.0898899 0.0202161 0)
(0.165233 0.230052 0)
(-0.116778 0.0673657 0)
(-0.144843 0.00375213 0)
(-0.171682 -0.056309 0)
(-0.20517 0.025558 0)
(-0.306737 0.134242 0)
(-0.437064 0.170284 0)
(-0.496202 0.115563 0)
(-0.504009 0.0414976 0)
(-0.384366 -0.0344389 0)
(-0.279349 -0.0805275 0)
(-0.189321 -0.103469 0)
(-0.129525 -0.0955893 0)
(-0.0964678 -0.0767084 0)
(-0.0977848 -0.0829214 0)
(-0.103922 -0.0847447 0)
(-0.0982881 -0.0960778 0)
(-0.0585434 -0.0637505 0)
(-0.0447641 0.0190873 0)
(0.0555485 0.28691 0)
(-0.173656 0.152304 0)
(-0.206097 0.00018541 0)
(-0.258762 -0.0212511 0)
(-0.348028 0.0596755 0)
(-0.509312 0.185248 0)
(-0.641133 0.208016 0)
(-0.627283 0.100585 0)
(-0.517746 -0.0207101 0)
(-0.400654 -0.0909705 0)
(-0.274364 -0.125173 0)
(-0.185531 -0.132326 0)
(-0.142595 -0.108366 0)
(-0.121339 -0.0852673 0)
(-0.142215 -0.0806856 0)
(-0.173846 -0.0688247 0)
(-0.166373 -0.102433 0)
(-0.141588 -0.0884375 0)
(-0.142619 -0.00478136 0)
(-0.03257 0.250416 0)
(-0.17267 0.207296 0)
(-0.213744 0.022427 0)
(-0.305685 0.0215603 0)
(-0.429508 0.116681 0)
(-0.572061 0.232143 0)
(-0.678241 0.225635 0)
(-0.628975 0.0550054 0)
(-0.533312 -0.068119 0)
(-0.417161 -0.14938 0)
(-0.321741 -0.174519 0)
(-0.2591 -0.160295 0)
(-0.214819 -0.12075 0)
(-0.171286 -0.0762249 0)
(-0.194297 -0.0554308 0)
(-0.175071 -0.0728731 0)
(-0.131396 -0.10889 0)
(-0.117937 -0.083209 0)
(-0.162032 0.014758 0)
(-0.0119054 0.177041 0)
(-0.146217 0.281774 0)
(-0.188943 0.0588988 0)
(-0.331039 0.080691 0)
(-0.482882 0.176179 0)
(-0.587337 0.27271 0)
(-0.6503 0.233816 0)
(-0.603777 0.0333117 0)
(-0.516102 -0.112644 0)
(-0.416137 -0.192778 0)
(-0.35454 -0.198793 0)
(-0.324676 -0.178328 0)
(-0.312067 -0.14238 0)
(-0.266971 -0.079076 0)
(-0.191901 -0.0752943 0)
(-0.110148 -0.10284 0)
(-0.0520321 -0.130572 0)
(-0.0152166 -0.114873 0)
(-0.0106117 -0.0347185 0)
(0.0437125 0.151252 0)
(-0.120488 0.359483 0)
(-0.142337 0.112721 0)
(-0.313883 0.159247 0)
(-0.503034 0.238938 0)
(-0.588006 0.294448 0)
(-0.605077 0.24871 0)
(-0.550063 0.0128264 0)
(-0.463713 -0.160909 0)
(-0.407247 -0.224832 0)
(-0.363026 -0.206895 0)
(-0.349583 -0.16925 0)
(-0.337702 -0.146096 0)
(-0.277057 -0.126573 0)
(-0.170559 -0.136422 0)
(-0.0702305 -0.150091 0)
(-0.0147056 -0.148854 0)
(0.0261669 -0.117456 0)
(0.018601 0.00873213 0)
(0.0661356 0.160845 0)
(-0.00597467 -0.231373 0)
(0.141475 -0.158477 0)
(0.210774 -0.0399257 0)
(0.245997 0.0744638 0)
(0.235843 0.129337 0)
(0.246159 0.0975134 0)
(0.297802 0.0439305 0)
(0.349741 0.00503402 0)
(0.378146 -0.00946876 0)
(0.391776 -0.0140097 0)
(0.396697 -0.014056 0)
(0.393613 -0.0101839 0)
(0.382506 -0.00513482 0)
(0.365219 -0.000474864 0)
(0.341122 0.00186095 0)
(0.310873 -0.00235474 0)
(0.282476 -0.0163191 0)
(0.268233 -0.0399581 0)
(0.256809 -0.0666473 0)
(0.22481 -0.0473006 0)
(0.133686 0.00105582 0)
(-0.00191032 0.117321 0)
(0.0176455 0.189063 0)
(-0.0261335 -0.274128 0)
(0.135617 -0.272716 0)
(0.0948549 -0.0739878 0)
(0.146051 0.0934433 0)
(0.240242 0.0823992 0)
(0.348031 0.0314751 0)
(0.432979 -0.00524394 0)
(0.483952 -0.0248404 0)
(0.511718 -0.0297742 0)
(0.524653 -0.0242652 0)
(0.526295 -0.0132034 0)
(0.517207 2.11175e-05 0)
(0.498253 0.014911 0)
(0.469251 0.0320532 0)
(0.432136 0.046135 0)
(0.389477 0.0448181 0)
(0.342615 0.0205045 0)
(0.280011 -0.000145716 0)
(0.130328 0.0505945 0)
(-0.0832627 0.131363 0)
(-0.18424 0.134502 0)
(-0.249607 0.149335 0)
(-0.263967 0.153281 0)
(-0.0222387 -0.373721 0)
(0.0458546 -0.256621 0)
(0.00989685 -0.0651157 0)
(0.16891 -0.0752975 0)
(0.305886 -0.0830827 0)
(0.413299 -0.0853385 0)
(0.48628 -0.0824942 0)
(0.530755 -0.0724475 0)
(0.555266 -0.0556208 0)
(0.564949 -0.0347181 0)
(0.563675 -0.00862818 0)
(0.552295 0.0200473 0)
(0.530365 0.0426118 0)
(0.495203 0.0625339 0)
(0.439074 0.08135 0)
(0.353851 0.0949229 0)
(0.230399 0.119615 0)
(1.57241e-05 0.198231 0)
(-0.135398 0.237265 0)
(-0.256616 0.231031 0)
(-0.31666 0.200088 0)
(-0.350606 0.187577 0)
(-0.360841 0.180691 0)
(-0.00439066 -0.396494 0)
(-0.0195716 -0.287978 0)
(0.0588938 -0.220833 0)
(0.191635 -0.215153 0)
(0.312203 -0.19207 0)
(0.405237 -0.162457 0)
(0.469454 -0.131667 0)
(0.506115 -0.0999087 0)
(0.524642 -0.0654384 0)
(0.528043 -0.032715 0)
(0.524652 -0.00677542 0)
(0.493486 0.0234813 0)
(0.421778 0.0628053 0)
(0.331202 0.121194 0)
(0.218983 0.185381 0)
(0.0650016 0.244609 0)
(-0.0769681 0.311835 0)
(-0.239554 0.34709 0)
(-0.322743 0.330705 0)
(-0.366795 0.277981 0)
(-0.386673 0.229928 0)
(-0.406841 0.205195 0)
(-0.419771 0.197177 0)
(0.0467376 -0.346055 0)
(0.0603894 -0.290749 0)
(0.103359 -0.309949 0)
(0.184102 -0.329198 0)
(0.278397 -0.295129 0)
(0.346144 -0.240993 0)
(0.394256 -0.185829 0)
(0.411178 -0.135488 0)
(0.419711 -0.095059 0)
(0.394994 -0.0557354 0)
(0.292089 0.0341 0)
(0.188739 0.129497 0)
(0.0748588 0.189414 0)
(-0.0173999 0.256399 0)
(-0.10694 0.32402 0)
(-0.224961 0.392589 0)
(-0.332322 0.447068 0)
(-0.407329 0.422289 0)
(-0.428627 0.363594 0)
(-0.439173 0.298896 0)
(-0.450599 0.251224 0)
(-0.461364 0.226313 0)
(-0.475904 0.217353 0)
(0.0604073 -0.476173 0)
(0.149052 -0.29147 0)
(0.145759 -0.348267 0)
(0.169767 -0.394009 0)
(0.22156 -0.351335 0)
(0.235922 -0.278373 0)
(0.255541 -0.205725 0)
(0.219038 -0.128433 0)
(0.134026 0.00208883 0)
(-0.044407 0.118908 0)
(-0.0858116 0.182832 0)
(-0.166929 0.233808 0)
(-0.276575 0.285414 0)
(-0.350164 0.34716 0)
(-0.408409 0.420407 0)
(-0.47938 0.486941 0)
(-0.508704 0.496731 0)
(-0.516107 0.440093 0)
(-0.510811 0.370215 0)
(-0.516338 0.310829 0)
(-0.524349 0.262931 0)
(-0.537155 0.232352 0)
(-0.535965 0.215972 0)
(-0.0232964 -0.653229 0)
(0.21651 -0.334296 0)
(0.193038 -0.359442 0)
(0.143467 -0.411204 0)
(0.129202 -0.352641 0)
(0.0417164 -0.235059 0)
(-0.0401852 -0.0919422 0)
(-0.19683 0.0353226 0)
(-0.275702 0.133065 0)
(-0.385969 0.184461 0)
(-0.501661 0.241147 0)
(-0.553904 0.305666 0)
(-0.612793 0.351115 0)
(-0.629988 0.397691 0)
(-0.64691 0.455914 0)
(-0.642785 0.50044 0)
(-0.62176 0.491319 0)
(-0.604748 0.431745 0)
(-0.589706 0.372669 0)
(-0.59198 0.317905 0)
(-0.587125 0.276367 0)
(-0.581308 0.240592 0)
(-0.567791 0.21256 0)
(-0.0768271 -0.705654 0)
(0.127052 -0.414379 0)
(0.108333 -0.360818 0)
(0.0207939 -0.348725 0)
(-0.0734868 -0.240379 0)
(-0.172736 -0.118559 0)
(-0.280073 -0.00476551 0)
(-0.522176 0.143489 0)
(-0.738956 0.233197 0)
(-0.799185 0.268643 0)
(-0.811356 0.3047 0)
(-0.794867 0.329477 0)
(-0.790425 0.359437 0)
(-0.782543 0.397402 0)
(-0.767682 0.439586 0)
(-0.741539 0.472266 0)
(-0.704169 0.459389 0)
(-0.677566 0.401864 0)
(-0.654645 0.348072 0)
(-0.642467 0.297254 0)
(-0.639785 0.246708 0)
(-0.638088 0.195455 0)
(-0.62686 0.152729 0)
(-0.102141 -0.696545 0)
(0.0202633 -0.420881 0)
(-0.0780034 -0.310507 0)
(-0.151988 -0.242722 0)
(-0.222311 -0.151265 0)
(-0.297971 -0.0463662 0)
(-0.647591 0.318973 0)
(-1.00139 0.497378 0)
(-0.919947 0.258759 0)
(-0.918404 0.271566 0)
(-0.89891 0.288027 0)
(-0.884937 0.309635 0)
(-0.871715 0.339472 0)
(-0.853299 0.374406 0)
(-0.828277 0.40871 0)
(-0.795285 0.429619 0)
(-0.754093 0.4099 0)
(-0.716218 0.362753 0)
(-0.687024 0.322596 0)
(-0.664915 0.288665 0)
(-0.652163 0.252415 0)
(-0.638222 0.209271 0)
(-0.616434 0.160344 0)
(-0.115357 -0.622729 0)
(-0.0980599 -0.374024 0)
(-0.219094 -0.234972 0)
(-0.276551 -0.182356 0)
(-0.345745 -0.1175 0)
(-0.46301 0.302265 0)
(-0.898031 0.716547 0)
(-0.891256 0.303488 0)
(-0.894351 0.253366 0)
(-0.89985 0.261617 0)
(-0.901834 0.277983 0)
(-0.900743 0.299553 0)
(-0.891402 0.327669 0)
(-0.872652 0.35628 0)
(-0.844592 0.383882 0)
(-0.809282 0.398866 0)
(-0.7698 0.378313 0)
(-0.724876 0.34089 0)
(-0.675327 0.311946 0)
(-0.628261 0.289091 0)
(-0.599384 0.260936 0)
(-0.600186 0.227263 0)
(-0.667663 0.118229 0)
(-0.128439 -0.49656 0)
(-0.172476 -0.2843 0)
(-0.286807 -0.179661 0)
(-0.367247 -0.1311 0)
(-0.44428 -0.0594848 0)
(-0.535782 0.705138 0)
(-0.699276 0.903697 0)
(-0.794101 0.31051 0)
(-0.825383 0.283167 0)
(-0.849039 0.28765 0)
(-0.872961 0.300746 0)
(-0.885317 0.310317 0)
(-0.878335 0.321195 0)
(-0.856784 0.336411 0)
(-0.82543 0.356757 0)
(-0.791762 0.375038 0)
(-0.758547 0.354107 0)
(-0.713401 0.292892 0)
(-0.682219 0.246304 0)
(-0.685886 0.239779 0)
(-0.636248 0.25662 0)
(-0.551142 0.233801 0)
(-0.474969 0.098053 0)
(-0.140006 -0.334133 0)
(-0.208387 -0.175259 0)
(-0.316278 -0.102481 0)
(-0.422385 -0.0395722 0)
(-0.519772 0.0592818 0)
(-0.478926 0.755212 0)
(-0.469885 0.926703 0)
(-0.688036 0.387066 0)
(-0.73923 0.344703 0)
(-0.776284 0.32615 0)
(-0.806828 0.317949 0)
(-0.832363 0.298289 0)
(-0.839278 0.296568 0)
(-0.767648 0.312345 0)
(-0.855278 0.314413 0)
(-0.848352 0.336931 0)
(-0.826294 0.28712 0)
(-0.789477 0.225075 0)
(-0.697861 0.21402 0)
(-0.573675 0.173872 0)
(-0.44011 0.146516 0)
(-0.2989 0.0779479 0)
(-0.163517 -0.0219712 0)
(-0.137436 -0.180893 0)
(-0.205455 -0.0701912 0)
(-0.310428 -0.00374615 0)
(-0.41747 0.0696372 0)
(-0.524687 0.20926 0)
(-0.561876 0.495782 0)
(-0.339062 0.902312 0)
(-0.596652 0.547982 0)
(-0.66628 0.420922 0)
(-0.702257 0.360024 0)
(-0.669222 0.334745 0)
(-0.65984 0.32392 0)
(-0.824849 0.257163 0)
(-0.861684 0.342345 0)
(-0.872727 0.320742 0)
(-0.83916 0.302575 0)
(-0.76854 0.246568 0)
(-0.655033 0.154054 0)
(-0.498962 0.0636552 0)
(-0.345391 0.00035928 0)
(-0.219905 -0.0349892 0)
(-0.109954 -0.0701908 0)
(-0.0308939 -0.0996785 0)
(-0.11304 -0.0348015 0)
(-0.180077 0.0307137 0)
(-0.281503 0.0882193 0)
(-0.374861 0.158692 0)
(-0.462913 0.289039 0)
(-0.484774 0.512589 0)
(-0.38962 0.835976 0)
(-0.500969 0.674448 0)
(-0.624391 0.447358 0)
(-0.539055 0.288116 0)
(-0.431311 0.482309 0)
(-0.631594 0.451481 0)
(-0.711076 0.398902 0)
(-0.765636 0.372352 0)
(-0.763519 0.32687 0)
(-0.710574 0.246963 0)
(-0.593835 0.123726 0)
(-0.417175 -0.0197471 0)
(-0.289377 -0.0936563 0)
(-0.196765 -0.110842 0)
(-0.10981 -0.122213 0)
(-0.0351858 -0.136314 0)
(0.0270653 -0.148094 0)
(-0.0957406 0.0851766 0)
(-0.15045 0.124585 0)
(-0.240424 0.174553 0)
(-0.313175 0.233009 0)
(-0.38094 0.33271 0)
(-0.402367 0.495025 0)
(-0.342801 0.741242 0)
(-0.18396 0.936169 0)
(-0.356298 0.333993 0)
(-0.33697 0.190799 0)
(-0.493239 0.526767 0)
(-0.543065 0.513119 0)
(-0.580731 0.444481 0)
(-0.594906 0.379019 0)
(-0.576611 0.28556 0)
(-0.499851 0.151415 0)
(-0.343221 -0.0231103 0)
(-0.217965 -0.147888 0)
(-0.156619 -0.174398 0)
(-0.0885894 -0.18559 0)
(-0.0289002 -0.189828 0)
(0.0210451 -0.19144 0)
(0.0636379 -0.189785 0)
(-0.082157 0.187322 0)
(-0.118571 0.202614 0)
(-0.189229 0.244413 0)
(-0.240054 0.294797 0)
(-0.289685 0.366152 0)
(-0.328605 0.469773 0)
(-0.275198 0.601546 0)
(0.222668 1.07103 0)
(0.0123945 0.772023 0)
(-0.0980375 0.371659 0)
(-0.320775 0.584163 0)
(-0.409107 0.557421 0)
(-0.417951 0.466266 0)
(-0.410845 0.356698 0)
(-0.372297 0.224752 0)
(-0.278937 0.0527243 0)
(-0.108818 -0.154234 0)
(-0.0872439 -0.208529 0)
(-0.0406378 -0.228672 0)
(-0.00126043 -0.234719 0)
(0.0335255 -0.232659 0)
(0.0637018 -0.227108 0)
(0.0915059 -0.218911 0)
(-0.0698829 0.272109 0)
(-0.0850385 0.257407 0)
(-0.128978 0.289249 0)
(-0.152638 0.333653 0)
(-0.183321 0.39072 0)
(-0.197085 0.42958 0)
(0.10446 0.332986 0)
(0.0425714 0.888219 0)
(0.0622969 0.432832 0)
(-0.1083 0.673018 0)
(-0.241438 0.657701 0)
(-0.27386 0.585097 0)
(-0.262795 0.460062 0)
(-0.229946 0.321163 0)
(-0.169857 0.155585 0)
(0.00260464 -0.097094 0)
(0.00985332 -0.193709 0)
(0.0285259 -0.237904 0)
(0.0477343 -0.257681 0)
(0.0655849 -0.261307 0)
(0.0820877 -0.256187 0)
(0.096826 -0.247038 0)
(0.110711 -0.235959 0)
(-0.057529 0.332621 0)
(-0.0496505 0.285294 0)
(-0.0656835 0.306158 0)
(-0.0573555 0.346836 0)
(-0.0792919 0.375983 0)
(0.12757 0.156349 0)
(0.455682 0.329486 0)
(-0.0344724 0.940312 0)
(0.00793713 0.811046 0)
(-0.205772 0.782877 0)
(-0.176686 0.698249 0)
(-0.168762 0.578217 0)
(-0.126725 0.428876 0)
(-0.0614895 0.254302 0)
(0.0382862 0.0343472 0)
(0.0975067 -0.121772 0)
(0.103982 -0.206207 0)
(0.109748 -0.250297 0)
(0.113415 -0.268501 0)
(0.115899 -0.270807 0)
(0.118089 -0.264481 0)
(0.120371 -0.254177 0)
(0.122962 -0.242326 0)
(-0.0432349 0.368559 0)
(-0.0105571 0.28607 0)
(-0.00376475 0.298178 0)
(0.0208769 0.329692 0)
(0.0822659 0.224613 0)
(0.291773 -0.0925415 0)
(-0.0765502 0.553279 0)
(-0.116141 1.0168 0)
(-0.0478848 0.838193 0)
(-0.171594 0.801411 0)
(-0.106366 0.679318 0)
(-0.067717 0.534094 0)
(0.00328691 0.356404 0)
(0.0821935 0.165474 0)
(0.161023 -0.0181664 0)
(0.175737 -0.141064 0)
(0.174533 -0.212578 0)
(0.168169 -0.250211 0)
(0.159577 -0.265673 0)
(0.150657 -0.267339 0)
(0.142576 -0.261284 0)
(0.135886 -0.251539 0)
(0.130283 -0.240388 0)
(-0.0289083 0.383717 0)
(0.0350201 0.265491 0)
(0.0436102 0.273432 0)
(0.0938765 0.249545 0)
(0.200998 0.114977 0)
(0.440848 0.349735 0)
(-0.244481 0.798298 0)
(-0.0717235 1.01622 0)
(-0.101592 0.858262 0)
(-0.108936 0.782363 0)
(-0.036471 0.62929 0)
(0.0275968 0.458726 0)
(0.105741 0.278221 0)
(0.176524 0.100215 0)
(0.218295 -0.0479159 0)
(0.224467 -0.146757 0)
(0.217607 -0.206819 0)
(0.204188 -0.239306 0)
(0.188248 -0.253146 0)
(0.172376 -0.255164 0)
(0.157903 -0.250398 0)
(0.145485 -0.242217 0)
(0.134486 -0.232631 0)
(-0.0166223 0.362607 0)
(0.0723769 0.237215 0)
(0.0798697 0.236568 0)
(0.184919 0.107827 0)
(0.600344 -0.0670212 0)
(-0.0413917 0.586979 0)
(-0.14039 0.962646 0)
(-0.129657 0.953869 0)
(-0.103952 0.853017 0)
(-0.0545991 0.734614 0)
(0.0270234 0.554858 0)
(0.102608 0.380867 0)
(0.176595 0.208066 0)
(0.231869 0.0533259 0)
(0.253988 -0.065506 0)
(0.253451 -0.145089 0)
(0.24176 -0.194766 0)
(0.224093 -0.222598 0)
(0.204241 -0.235227 0)
(0.184692 -0.238004 0)
(0.166738 -0.234948 0)
(0.151006 -0.228762 0)
(0.136769 -0.221112 0)
(-0.0110776 0.320414 0)
(0.101751 0.204637 0)
(0.128647 0.11403 0)
(0.335057 -0.289225 0)
(0.0978824 0.500591 0)
(-0.463432 0.815401 0)
(-0.138703 0.909315 0)
(-0.18857 0.896121 0)
(-0.0920335 0.805653 0)
(-0.00727186 0.651679 0)
(0.0796942 0.471822 0)
(0.15772 0.304206 0)
(0.220929 0.149683 0)
(0.2607 0.0217438 0)
(0.271593 -0.0729197 0)
(0.266654 -0.137401 0)
(0.252322 -0.178767 0)
(0.232847 -0.202864 0)
(0.211513 -0.214681 0)
(0.190509 -0.218385 0)
(0.171014 -0.217123 0)
(0.15369 -0.213014 0)
(0.137788 -0.207414 0)
(-0.0153315 0.258547 0)
(0.120673 0.0999297 0)
(0.13609 -0.186598 0)
(-0.118773 0.223813 0)
(-0.598822 0.55952 0)
(-0.216418 0.85214 0)
(-0.252229 0.804075 0)
(-0.1716 0.822596 0)
(-0.0665525 0.721244 0)
(0.0372965 0.553123 0)
(0.123328 0.387466 0)
(0.194876 0.23615 0)
(0.245096 0.105252 0)
(0.27203 0.00187478 0)
(0.276777 -0.0740099 0)
(0.269487 -0.126719 0)
(0.254201 -0.161345 0)
(0.234434 -0.182268 0)
(0.213012 -0.193387 0)
(0.191863 -0.197954 0)
(0.172081 -0.198382 0)
(0.154271 -0.196273 0)
(0.137782 -0.192687 0)
(-0.0341509 0.189469 0)
(0.123353 -0.00405844 0)
(0.103055 -0.0188567 0)
(-0.190124 0.475488 0)
(-0.275683 0.723012 0)
(-0.189182 0.713732 0)
(-0.224888 0.748657 0)
(-0.125044 0.739197 0)
(-0.0238065 0.616618 0)
(0.0781475 0.457849 0)
(0.157232 0.31097 0)
(0.217371 0.180748 0)
(0.255771 0.0729811 0)
(0.27376 -0.0102897 0)
(0.275164 -0.0716345 0)
(0.266486 -0.114776 0)
(0.250918 -0.143666 0)
(0.231489 -0.161816 0)
(0.210656 -0.172326 0)
(0.190098 -0.177682 0)
(0.170754 -0.179657 0)
(0.153215 -0.179404 0)
(0.136846 -0.177734 0)
(-0.0570496 0.133966 0)
(0.123123 0.0252872 0)
(0.0832419 0.0628068 0)
(0.053245 0.714459 0)
(-0.126346 0.73159 0)
(-0.135844 0.69236 0)
(-0.157951 0.708186 0)
(-0.0663763 0.649241 0)
(0.0273553 0.514622 0)
(0.115049 0.374152 0)
(0.182278 0.246843 0)
(0.230215 0.137569 0)
(0.259059 0.0497148 0)
(0.270974 -0.0174739 0)
(0.269821 -0.0669998 0)
(0.259992 -0.102098 0)
(0.244334 -0.126111 0)
(0.225513 -0.141949 0)
(0.205631 -0.152024 0)
(0.186082 -0.158142 0)
(0.167649 -0.161525 0)
(0.150791 -0.162962 0)
(0.134964 -0.163045 0)
(-0.0607377 0.142038 0)
(0.149926 0.0588357 0)
(0.244973 0.104166 0)
(0.103095 0.840516 0)
(-0.0796438 0.815972 0)
(-0.0888623 0.716323 0)
(-0.093227 0.668338 0)
(-0.00700059 0.561172 0)
(0.0731901 0.42987 0)
(0.145305 0.305045 0)
(0.200058 0.195525 0)
(0.237368 0.104577 0)
(0.258523 0.0331993 0)
(0.2656 -0.0207624 0)
(0.261998 -0.0604353 0)
(0.251092 -0.0888277 0)
(0.235472 -0.108872 0)
(0.217446 -0.122939 0)
(0.198737 -0.132804 0)
(0.180438 -0.139674 0)
(0.163127 -0.14432 0)
(0.147224 -0.147251 0)
(0.132171 -0.148906 0)
(-0.0193377 0.0601906 0)
(0.203412 -0.268865 0)
(0.252756 0.176299 0)
(-0.094874 0.979729 0)
(-0.0939788 0.894955 0)
(-0.0784598 0.72714 0)
(-0.0467826 0.616531 0)
(0.0383451 0.483652 0)
(0.108413 0.359224 0)
(0.168331 0.248343 0)
(0.212432 0.154916 0)
(0.24088 0.0798053 0)
(0.255398 0.022301 0)
(0.258147 -0.0205655 0)
(0.252176 -0.0520903 0)
(0.24037 -0.0751063 0)
(0.224997 -0.0921304 0)
(0.207946 -0.104983 0)
(0.190547 -0.114852 0)
(0.173598 -0.122448 0)
(0.157533 -0.128207 0)
(0.14264 -0.132438 0)
(0.128448 -0.135461 0)
(0.135752 -0.304622 0)
(-0.0892116 -0.282408 0)
(-0.334688 0.484597 0)
(-0.369498 0.977677 0)
(-0.163354 0.844117 0)
(-0.100468 0.68019 0)
(-0.014476 0.5414 0)
(0.0705181 0.409752 0)
(0.135139 0.297002 0)
(0.18576 0.20116 0)
(0.220738 0.123061 0)
(0.24135 0.0620854 0)
(0.249819 0.0164668 0)
(0.248671 -0.0171801 0)
(0.240645 -0.0422341 0)
(0.228282 -0.061206 0)
(0.213427 -0.0761151 0)
(0.197505 -0.0882338 0)
(0.181469 -0.0982541 0)
(0.165882 -0.106521 0)
(0.151029 -0.113234 0)
(0.137198 -0.11857 0)
(0.123876 -0.122772 0)
(-0.0521491 -0.0319389 0)
(-0.222306 0.200288 0)
(-0.446267 0.567152 0)
(-0.303791 0.820827 0)
(-0.178392 0.688088 0)
(-0.0614741 0.582245 0)
(0.0242953 0.452045 0)
(0.101758 0.338703 0)
(0.158595 0.242553 0)
(0.199544 0.162741 0)
(0.225573 0.0992915 0)
(0.238773 0.0509228 0)
(0.241748 0.0152592 0)
(0.237299 -0.0110605 0)
(0.227756 -0.0313085 0)
(0.215262 -0.0474804 0)
(0.201187 -0.061038 0)
(0.186488 -0.0727728 0)
(0.171798 -0.0830126 0)
(0.157502 -0.0918608 0)
(0.143832 -0.0993718 0)
(0.13097 -0.105636 0)
(0.11849 -0.110826 0)
(-0.0837422 0.0347567 0)
(-0.162583 0.275874 0)
(-0.361004 0.567057 0)
(-0.163122 0.67227 0)
(-0.129682 0.567677 0)
(0.00993572 0.476244 0)
(0.0700286 0.371619 0)
(0.133655 0.277881 0)
(0.179256 0.198502 0)
(0.209541 0.13388 0)
(0.226598 0.0836187 0)
(0.232906 0.0459151 0)
(0.231223 0.0180692 0)
(0.224202 -0.00289086 0)
(0.21391 -0.0198682 0)
(0.201708 -0.0342803 0)
(0.188598 -0.0470476 0)
(0.17514 -0.0586079 0)
(0.161723 -0.0690662 0)
(0.148626 -0.0783918 0)
(0.136012 -0.0865526 0)
(0.124105 -0.09358 0)
(0.112426 -0.0995957 0)
(-0.078396 0.163477 0)
(-0.104318 0.368659 0)
(-0.25102 0.582823 0)
(-0.0580988 0.564629 0)
(-0.0553127 0.488649 0)
(0.0679643 0.393478 0)
(0.113239 0.308351 0)
(0.161177 0.231024 0)
(0.194422 0.166294 0)
(0.214262 0.114843 0)
(0.22313 0.075571 0)
(0.223675 0.0461827 0)
(0.21854 0.0239541 0)
(0.20994 0.00640954 0)
(0.199507 -0.00850025 0)
(0.187943 -0.021875 0)
(0.175879 -0.0342009 0)
(0.163615 -0.0456802 0)
(0.151372 -0.0563122 0)
(0.139358 -0.0660088 0)
(0.127737 -0.0746918 0)
(0.116654 -0.082345 0)
(0.105715 -0.0890436 0)
(-0.0603966 0.245476 0)
(-0.0635694 0.415567 0)
(-0.149397 0.569428 0)
(0.0140522 0.478304 0)
(0.0162251 0.424662 0)
(0.107797 0.334162 0)
(0.146135 0.261226 0)
(0.180048 0.197368 0)
(0.201931 0.145189 0)
(0.212741 0.10461 0)
(0.215044 0.0738278 0)
(0.211451 0.0503459 0)
(0.204217 0.0317519 0)
(0.195001 0.0161644 0)
(0.184774 0.00239483 0)
(0.174156 -0.0104211 0)
(0.16314 -0.0224841 0)
(0.151991 -0.0338998 0)
(0.140821 -0.0446415 0)
(0.129789 -0.0546124 0)
(0.119036 -0.0637098 0)
(0.108763 -0.0718735 0)
(0.0984946 -0.0791418 0)
(-0.0413972 0.305937 0)
(-0.0388262 0.43317 0)
(-0.0608246 0.532509 0)
(0.0584456 0.414121 0)
(0.0724444 0.366972 0)
(0.135383 0.289456 0)
(0.166567 0.227064 0)
(0.188983 0.174982 0)
(0.201357 0.133412 0)
(0.205187 0.101307 0)
(0.202969 0.0765436 0)
(0.196969 0.0568485 0)
(0.188873 0.0403586 0)
(0.179749 0.0258078 0)
(0.170164 0.0124725 0)
(0.160334 3.98311e-05 0)
(0.150425 -0.0118522 0)
(0.140308 -0.0231813 0)
(0.130123 -0.0339631 0)
(0.11998 -0.0441177 0)
(0.110041 -0.0535309 0)
(0.100444 -0.0621109 0)
(0.0907947 -0.0698354 0)
(-0.0243902 0.341299 0)
(-0.0201613 0.428407 0)
(0.00562153 0.475689 0)
(0.0865557 0.368744 0)
(0.11024 0.318973 0)
(0.152074 0.255763 0)
(0.174895 0.203919 0)
(0.188204 0.161929 0)
(0.193502 0.12873 0)
(0.192722 0.102686 0)
(0.188017 0.0818032 0)
(0.181089 0.0643091 0)
(0.17304 0.0489298 0)
(0.164474 0.0348896 0)
(0.155674 0.0217818 0)
(0.146738 0.0094334 0)
(0.137696 -0.00222796 0)
(0.128579 -0.0134298 0)
(0.119305 -0.0241788 0)
(0.109986 -0.0344357 0)
(0.100755 -0.0440802 0)
(0.0918372 -0.0529853 0)
(0.0827653 -0.0610791 0)
(-0.0101869 0.354266 0)
(0.000868428 0.406321 0)
(0.0466786 0.414293 0)
(0.103912 0.33182 0)
(0.129595 0.282669 0)
(0.15725 0.231776 0)
(0.172311 0.189641 0)
(0.179177 0.155754 0)
(0.180082 0.12862 0)
(0.176941 0.106562 0)
(0.171394 0.088004 0)
(0.164571 0.0717275 0)
(0.157115 0.0569392 0)
(0.149343 0.0431871 0)
(0.141387 0.0302409 0)
(0.1333 0.0179938 0)
(0.125085 0.00641717 0)
(0.116795 -0.00458959 0)
(0.108373 -0.0152186 0)
(0.0998188 -0.0254934 0)
(0.0912814 -0.0352917 0)
(0.0829236 -0.0444523 0)
(0.0743885 -0.0528359 0)
(0.00149316 0.350041 0)
(0.0209297 0.373949 0)
(0.0681031 0.36043 0)
(0.110467 0.299898 0)
(0.133551 0.25623 0)
(0.151942 0.215533 0)
(0.161311 0.181551 0)
(0.164379 0.153751 0)
(0.163232 0.130751 0)
(0.159438 0.111216 0)
(0.154122 0.0940587 0)
(0.147976 0.0785209 0)
(0.141363 0.0641322 0)
(0.134454 0.0506271 0)
(0.127327 0.037862 0)
(0.120023 0.0257592 0)
(0.112575 0.0142734 0)
(0.104971 0.00340712 0)
(0.0973328 -0.00704033 0)
(0.0895232 -0.0172394 0)
(0.081601 -0.0271171 0)
(0.0738232 -0.0364673 0)
(0.0657778 -0.0450941 0)
(0.0100672 0.332241 0)
(0.0346471 0.339184 0)
(0.075555 0.317442 0)
(0.107467 0.273281 0)
(0.126404 0.237144 0)
(0.139067 0.204692 0)
(0.145087 0.177038 0)
(0.146489 0.153617 0)
(0.144908 0.133427 0)
(0.141475 0.115575 0)
(0.13692 0.0993957 0)
(0.131668 0.0844442 0)
(0.125944 0.0704445 0)
(0.119868 0.0572309 0)
(0.113508 0.0447021 0)
(0.106914 0.032793 0)
(0.100135 0.0214581 0)
(0.0932102 0.0106641 0)
(0.0861335 0.000410544 0)
(0.0790511 -0.0096266 0)
(0.0717539 -0.0195103 0)
(0.06446 -0.0290062 0)
(0.0568893 -0.037816 0)
(0.0145596 0.30646 0)
(0.0400821 0.306394 0)
(0.0732689 0.284414 0)
(0.0975191 0.251893 0)
(0.112692 0.223055 0)
(0.122119 0.197012 0)
(0.126616 0.174073 0)
(0.1277 0.153834 0)
(0.126532 0.135696 0)
(0.123881 0.119149 0)
(0.120229 0.103823 0)
(0.115865 0.0894693 0)
(0.110961 0.0759218 0)
(0.105627 0.0630708 0)
(0.0999411 0.0508394 0)
(0.0939712 0.0391713 0)
(0.0877775 0.0280233 0)
(0.0814194 0.0173603 0)
(0.0749254 0.00716202 0)
(0.0683447 -0.00263653 0)
(0.0616978 -0.0124353 0)
(0.0549302 -0.0220224 0)
(0.0478192 -0.0309856 0)
(0.0151536 0.278798 0)
(0.0387591 0.277816 0)
(0.0651003 0.259033 0)
(0.0839091 0.234806 0)
(0.0963096 0.212018 0)
(0.104052 0.19084 0)
(0.108074 0.171451 0)
(0.109446 0.15367 0)
(0.108954 0.137217 0)
(0.107123 0.121851 0)
(0.104296 0.107389 0)
(0.100698 0.0936988 0)
(0.0964842 0.0806817 0)
(0.0917699 0.0682627 0)
(0.0866486 0.056383 0)
(0.0812011 0.0449961 0)
(0.0755009 0.0340635 0)
(0.0696162 0.0235536 0)
(0.0636112 0.0134368 0)
(0.0574688 0.00371524 0)
(0.0513992 -0.00591701 0)
(0.0450765 -0.0155181 0)
(0.0384416 -0.0245875 0)
(0.0132677 0.25364 0)
(0.0336396 0.254111 0)