/*--------------------------------*- C++ -*----------------------------------*\
| =========                 |                                                 |
| \\      /  F ield         | OpenFOAM: The Open Source CFD Toolbox           |
|  \\    /   O peration     | Version:  2312                                  |
|   \\  /    A nd           | Website:  www.openfoam.com                      |
|    \\/     M anipulation  |                                                 |
\*---------------------------------------------------------------------------*/
FoamFile
{
    version     2.0;
    format      ascii;
    arch        "LSB;label=32;scalar=64";
    class       volScalarField;
    location    "5.95";
    object      alpha.galistan;
}
// * * * * * * * * * * * * * * * * * * * * * * * * * * * * * * * * * * * * * //

dimensions      [0 0 0 0 0 0 0];

internalField   nonuniform List<scalar> 
2268
(
1
1
1
1
1
1
1
1
1
1
1
1
1
1
1
1
1
1
1
0.999996
0.999963
0.999959
0.999959
1
1
1
1
1
1
1
1
1
1
1
1
1
1
1
1
1
1
1
1
0.999987
0.999967
0.999984
1
1
1
1
1
1
1
1
1
1
1
1
1
1
1
1
1
1
1
1
1
1
1
1
1
1
1
1
1
1
1
1
1
1
1
1
1
1
0.999999
1
1
1
1
1
1
1
0.980392
0.982467
0.986923
0.994619
0.997503
0.99825
0.999332
0.999873
0.999977
0.999965
0.999982
0.999991
0.999956
0.999969
0.999973
0.999994
0.999999
1
1
1
1
1
0.999821
0.344834
0.353108
0.372108
0.405058
0.461605
0.53645
0.620954
0.708799
0.790388
0.858321
0.909537
0.950851
0.98263
0.999468
0.999245
0.997101
0.990196
0.97241
0.964306
0.964141
0.970877
0.97518
0.976092
-2.76693e-16
-5.21591e-10
-5.28675e-09
1.08201e-05
0.00120722
0.00708823
0.0222276
0.0507536
0.0960502
0.157922
0.229556
0.304309
0.38287
0.458612
0.51929
0.552607
0.579188
0.595167
0.587588
0.560928
0.540447
0.533373
0.545293
9.26829e-14
5.42081e-07
1.61557e-05
2.36853e-05
5.32102e-06
5.14139e-06
5.47942e-13
-5.89978e-12
4.59382e-21
-5.05637e-12
-1.58448e-08
-1.86529e-08
-8.51708e-09
0.00219826
0.0169526
0.0295432
0.0266204
0.0123511
0.000922745
-5.75368e-06
-1.81817e-06
0
-7.05291e-07
0.966998
0.966528
0.964954
0.964661
0.964882
0.965177
0.965177
0.965178
0.965178
0.965034
0.964953
0.965949
0.967909
0.967909
0.967909
0.967916
0.967916
0.967917
0.967917
0.968451
0.972256
0.972494
0.972519
0.972577
0.963671
0.958952
0.950458
0.942855
0.939635
0.93726
0.929182
0.926704
0.927501
0.928005
0.908124
0.904726
0.910446
0.915681
0.806449
0.839834
0.851935
0.836414
0.8097
0.737829
0.673938
0.622225
0.572384
0.504627
0.471619
0.466665
0.482335
0.486566
0.489731
0.488853
0.489358
0.495162
0.504891
0.583996
0.565487
0.512871
0.398594
0.234091
0.138035
0.0649929
0.0188562
0.00257386
8.89056e-07
-1.56955e-05
0.00051742
1.49433e-05
1.51149e-05
0.00471399
0.0452569
0.033452
0.016325
0.0255989
0.0104907
0.0197653
0.00840471
0.000708605
-7.06158e-07
-1.44777e-20
-1.37848e-13
-1.97756e-06
0.000369446
0.00138106
0.0142315
0.0119485
0.00306559
2.48018e-05
5.36393e-06
1.09348e-06
1.13793e-06
8.82657e-07
9.72297e-07
0.000383442
0.00132554
0.00311767
0.00423945
0.000913312
3.11723e-05
0.000155941
0.000561751
0.00149381
0.016452
0.0184748
0.0184911
0.0045204
0.00151845
0.00381214
7.17986e-05
0.0012958
0.00159447
0.000206459
0.00138293
0.00429679
0.00592366
0.00599603
0.00398516
3.18823e-05
0.000388829
0.000874879
0.00152671
0.0218539
0.0134567
0.00222376
0.00176236
0.00153682
0.0045314
0.000547591
0.004535
0.00320346
0.000935205
0.00113603
0.00414492
0.00442915
0.00599781
0.00529442
0.00136655
0.000502702
0.00059531
0.00177534
0.0218803
0.00388434
7.01879e-05
0.000918856
0.00175382
0.00517931
0.00535046
0.00449099
0.00279151
0.000906428
5.52874e-13
9.42639e-06
9.64548e-05
0.000327852
0.000228301
5.71154e-09
6.52934e-09
6.86126e-08
5.17733e-07
2.40548e-06
1.06254e-05
1.43823e-05
6.62091e-06
8.47531e-22
-4.54928e-09
-9.5385e-13
1.47125e-06
1.73692e-05
5.27666e-05
9.73222e-05
6.04527e-05
3.64653e-06
0.000174041
0.000316414
6.21743e-05
0.000144728
0.00159276
0.00204686
0.00094396
0.00020297
9.35665e-05
4.83175e-07
7.77603e-05
0.000114685
2.48025e-05
3.94521e-05
0.000162466
5.18585e-05
4.73679e-06
5.74504e-05
0.0004811
0.00107001
0.000981592
0.000282335
0.00010435
0.00112338
0.000400129
0.000395505
0.000207239
0.00118554
0.00213787
0.00213805
0.00213522
0.00225761
0.00161241
0.000147277
0.000122239
0.00247943
0.00464473
0.00464237
0.00403268
0.00336319
0.00450534
0.00600917
0.00600928
0.00408441
0.00171951
0.00287295
0.00527087
0.000330829
0.000236716
0.000162623
0.000358257
0.000918358
0.000798345
0.00110391
0.00226116
0.00224798
0.000255691
7.91408e-05
0.00276002
0.00464691
0.00463981
0.0038131
0.00261179
0.00384063
0.00594752
0.00600771
0.00599939
0.00561769
0.0046302
0.00686554
7.68564e-05
6.75485e-05
2.5936e-05
7.45617e-06
7.50237e-06
5.62493e-05
0.000644467
0.00226098
0.00189439
4.05962e-05
5.71223e-05
0.00070095
0.00116593
0.0011582
0.000466432
0.000318877
0.000388889
0.000699929
0.00170372
0.00305326
0.0025396
0.000142805
0.000141658
8.40812e-05
6.03085e-05
7.52457e-06
7.45598e-06
7.45609e-06
7.4559e-06
0.000421217
0.00196612
0.0010595
4.02672e-05
3.99712e-05
3.9309e-05
8.80847e-06
8.99031e-06
6.7741e-05
0.000109843
3.13551e-05
4.26684e-05
0.00039039
0.000507537
0.000322215
0.000251726
0.000136247
0.000170821
0.00010945
7.47971e-06
7.46891e-06
7.45343e-06
7.4475e-06
0.000127885
0.00026061
0.000138028
6.46544e-05
8.63418e-05
4.95715e-05
1.32479e-05
7.87111e-06
1.12639e-05
9.03073e-06
9.02046e-06
9.02631e-06
1.23762e-05
0.00102134
0.00174988
0.00176082
0.000505814
0.000359945
0.000187754
4.56666e-05
0.000118848
0.000338356
0.000486199
0.000238614
9.49842e-05
9.45981e-05
9.37732e-05
9.51988e-05
7.917e-05
3.04941e-05
7.8723e-06
1.38824e-05
6.69934e-05
9.89726e-05
0.000115564
5.22026e-05
0.000187104
0.00166651
0.00206575
0.00191157
0.000402599
0.000392618
0.000140844
0.000284472
0.000656845
0.000657337
0.000656839
0.00056391
0.000500894
0.000514866
0.000551403
0.000551822
0.000239566
9.25792e-06
0.000101259
0.000307209
0.00031184
0.000101002
4.61057e-05
0.000688174
0.00106829
0.000980067
0.000900779
0.000402597
0.000402579
0.000148692
9.13849e-05
0.00026807
0.00042129
0.000482513
0.000444668
0.000311461
0.000313259
0.000455532
0.000554812
0.000552322
0.000111149
6.4891e-05
0.000299555
0.000311894
0.000135854
2.4346e-05
0.000225478
8.49616e-05
1.55597e-08
1.13499e-15
0.000254375
0.000114025
5.70004e-05
1.42815e-06
1.85286e-08
3.23314e-06
5.11422e-06
8.40041e-06
7.04405e-09
6.65368e-09
6.80563e-09
3.57126e-05
8.3565e-05
7.641e-05
5.61888e-05
0.000187927
0.000114077
7.77723e-06
7.61017e-06
2.79102e-10
2.13896e-10
2.13796e-10
3.17074e-07
1.61577e-06
-4.85823e-22
-1.25946e-09
2.19293e-11
5.38171e-09
6.59694e-09
1.22369e-08
1.66624e-08
1.6728e-08
2.15765e-08
5.07277e-08
1.08721e-08
1.08984e-08
8.05638e-06
5.42531e-06
1.63661e-06
1.48567e-06
2.82319e-08
3.36878e-09
7.06556e-09
1.23951e-09
3.82728e-10
1.87586e-06
1.28382e-07
1.79746e-07
8.76942e-08
3.52321e-08
6.37674e-08
6.97377e-08
6.57071e-08
1.94402e-08
6.15276e-09
1.44257e-08
5.14656e-08
4.42393e-08
1.09123e-08
4.31692e-09
1.27769e-06
2.25915e-06
8.18835e-07
8.56087e-08
3.37193e-09
4.04637e-09
9.13275e-09
6.47266e-07
1.11433e-06
4.84957e-08
9.96756e-08
8.70709e-08
8.33985e-08
8.04285e-08
7.9395e-08
4.40853e-08
6.2747e-09
5.70128e-09
1.35658e-08
2.75401e-08
3.43003e-08
1.97761e-08
4.33595e-09
5.08105e-08
1.442e-07
4.63778e-08
3.54681e-08
1.68331e-07
9.93045e-07
1.18509e-06
4.05393e-07
1.5283e-07
9.23257e-09
3.25877e-08
5.74574e-08
6.945e-08
5.12441e-08
4.03069e-08
2.16851e-08
5.42901e-09
3.64299e-09
6.91409e-09
1.51868e-08
1.50893e-08
1.25334e-08
4.69444e-09
1.914e-09
1.91672e-09
2.08779e-09
5.73856e-09
6.67742e-07
9.20835e-07
2.80147e-07
2.64818e-07
1.18937e-07
2.40241e-09
7.47558e-09
2.11568e-08
2.5499e-08
1.7023e-08
1.31409e-08
9.46354e-09
4.34519e-09
2.58874e-09
3.36832e-09
5.6544e-09
5.20301e-09
4.60793e-09
3.75826e-09
3.07443e-09
1.91457e-09
1.91653e-09
2.09648e-07
5.73181e-07
1.42283e-07
1.82144e-07
1.58221e-06
2.17629e-07
2.10286e-09
5.93559e-09
1.19235e-08
1.17552e-08
9.40792e-09
7.19855e-09
5.40652e-09
3.28501e-09
2.11584e-09
2.1975e-09
2.6414e-09
2.73028e-09
2.59149e-09
2.65342e-09
2.53454e-09
1.91607e-09
2.43603e-08
2.51775e-07
1.81134e-07
3.62616e-08
8.54273e-07
1.73226e-06
4.65381e-07
1.47788e-09
3.19882e-09
4.84218e-09
4.97115e-09
4.50476e-09
3.84532e-09
3.05032e-09
2.22696e-09
1.73755e-09
1.5076e-09
1.5163e-09
1.5601e-09
1.59807e-09
1.73137e-09
1.75024e-09
2.04277e-09
2.78899e-08
1.0976e-07
5.77638e-08
8.55327e-09
4.95916e-07
1.73841e-06
1.32018e-06
1.04361e-09
1.76237e-09
2.2685e-09
2.50118e-09
2.45339e-09
2.17412e-09
1.78853e-09
1.43389e-09
1.18278e-09
1.04234e-09
9.62601e-10
9.8756e-10
1.04434e-09
1.15565e-09
1.26831e-09
1.91364e-09
1.35189e-08
3.2204e-08
2.10901e-08
8.59492e-09
8.55327e-09
6.5486e-07
1.282e-06
8.20727e-10
1.09703e-09
1.33347e-09
1.47217e-09
1.42799e-09
1.2585e-09
1.05399e-09
8.72803e-10
7.43641e-10
6.63708e-10
6.11547e-10
6.21266e-10
6.67969e-10
7.61839e-10
8.96461e-10
1.39824e-09
4.64466e-09
7.86435e-09
6.91172e-09
4.44598e-09
1.43501e-08
1.0818e-07
1.47631e-07
6.81005e-10
7.47064e-10
8.61042e-10
9.00619e-10
8.34304e-10
7.15075e-10
5.93605e-10
4.93744e-10
4.21658e-10
3.78076e-10
3.49535e-10
3.46221e-10
3.73825e-10
4.37786e-10
5.41363e-10
8.13298e-10
1.65483e-09
2.22932e-09
2.46038e-09
2.44133e-09
1.17043e-08
7.7723e-08
1.21245e-07
6.00155e-10
5.30277e-10
5.67882e-10
5.51527e-10
4.82577e-10
3.95552e-10
3.16607e-10
2.57735e-10
2.15803e-10
1.89247e-10
1.72615e-10
1.65487e-10
1.78582e-10
2.13315e-10
2.7416e-10
4.0039e-10
6.76625e-10
9.43445e-10
1.24102e-09
3.13921e-09
1.12328e-08
2.41968e-08
9.10496e-08
5.33359e-10
3.82316e-10
3.79387e-10
3.44152e-10
2.86504e-10
2.25352e-10
1.71365e-10
1.31133e-10
1.0352e-10
8.5506e-11
7.4347e-11
6.93846e-11
7.3804e-11
8.91654e-11
1.1861e-10
1.74449e-10
2.83873e-10
4.42486e-10
7.24142e-10
1.76004e-09
4.06571e-09
8.84884e-09
4.8884e-08
4.81467e-10
2.81571e-10
2.65286e-10
2.35063e-10
1.92223e-10
1.45752e-10
1.06542e-10
7.73749e-11
5.55028e-11
4.07445e-11
3.16674e-11
2.71021e-11
2.73044e-11
3.25839e-11
4.45496e-11
6.82687e-11
1.15408e-10
1.99257e-10
3.47779e-10
6.77599e-10
8.67151e-10
1.40925e-09
1.30488e-08
4.38373e-10
2.15657e-10
2.06118e-10
1.92118e-10
1.66277e-10
1.29572e-10
9.12275e-11
6.1035e-11
3.96616e-11
2.60253e-11
1.73324e-11
1.22155e-11
1.02672e-11
1.10111e-11
1.48407e-11
2.38626e-11
4.33394e-11
8.21311e-11
1.48395e-10
2.57146e-10
3.90912e-10
4.55179e-10
2.49746e-09
4.05381e-10
1.76758e-10
1.86494e-10
1.99586e-10
1.92835e-10
1.43895e-10
9.73056e-11
6.21358e-11
3.86572e-11
2.32231e-11
1.38628e-11
8.2337e-12
5.23714e-12
4.14952e-12
4.70696e-12
7.41022e-12
1.39983e-11
2.7953e-11
5.23725e-11
9.76424e-11
1.68219e-10
3.50465e-10
8.9816e-10
3.74547e-10
1.60697e-10
1.98334e-10
2.40158e-10
2.51121e-10
1.67284e-10
1.0488e-10
6.30514e-11
3.91662e-11
2.32491e-11
1.33459e-11
7.49047e-12
4.06537e-12
2.3365e-12
1.76077e-12
2.17134e-12
3.82682e-12
7.5436e-12
1.39452e-11
2.62905e-11
5.1867e-11
9.99522e-11
2.21434e-10
3.59416e-10
1.63486e-10
2.40144e-10
3.21909e-10
3.46581e-10
1.99258e-10
1.07835e-10
5.99675e-11
3.7259e-11
2.19024e-11
1.26036e-11
7.05832e-12
3.73829e-12
1.91404e-12
1.0228e-12
7.55185e-13
9.74012e-13
1.69765e-12
2.94346e-12
5.14716e-12
8.99004e-12
1.7794e-11
3.88544e-11
3.39816e-10
1.86618e-10
3.21694e-10
4.64305e-10
4.51297e-10
2.34495e-10
1.0383e-10
5.56923e-11
3.31242e-11
1.88998e-11
1.09201e-11
6.23058e-12
3.37126e-12
1.7216e-12
8.2816e-13
4.17192e-13
3.04369e-13
3.78391e-13
5.65259e-13
8.626e-13
1.32883e-12
2.31321e-12
4.95214e-12
3.28296e-10
2.3e-10
4.37469e-10
6.20627e-10
4.99977e-10
2.50298e-10
9.90722e-11
5.49201e-11
2.8317e-11
1.50932e-11
8.61175e-12
5.01471e-12
2.82323e-12
1.4871e-12
7.21354e-13
3.23781e-13
1.58787e-13
1.09469e-13
1.35907e-13
1.95961e-13
2.8309e-13
4.76032e-13
8.74538e-13
3.31785e-10
2.91783e-10
5.85542e-10
7.856e-10
5.13373e-10
2.38483e-10
1.04285e-10
5.62863e-11
2.40404e-11
1.13472e-11
6.23348e-12
3.68062e-12
2.1675e-12
1.18318e-12
6.02109e-13
2.71244e-13
1.13709e-13
5.51983e-14
5.10546e-14
7.59735e-14
1.29783e-13
2.36379e-13
4.27266e-13
3.44305e-10
3.68208e-10
7.54152e-10
8.83196e-10
5.25243e-10
2.3855e-10
1.27131e-10
5.73715e-11
2.11705e-11
8.22876e-12
4.22228e-12
2.47846e-12
1.49128e-12
8.68481e-13
4.66436e-13
2.21196e-13
9.26009e-14
3.8382e-14
2.49987e-14
3.86261e-14
7.46132e-14
1.53787e-13
2.93429e-13
3.5794e-10
4.49165e-10
8.9162e-10
9.1238e-10
5.48369e-10
2.61002e-10
1.50938e-10
6.04898e-11
1.94816e-11
6.15929e-12
2.77258e-12
1.60003e-12
9.65205e-13
5.76098e-13
3.27292e-13
1.68201e-13
7.46887e-14
2.97536e-14
1.35751e-14
2.06919e-14
4.15269e-14
9.81856e-14
1.96617e-13
3.81562e-10
5.35267e-10
9.94909e-10
9.35792e-10
5.40435e-10
3.01098e-10
1.74537e-10
6.73903e-11
1.90936e-11
4.66987e-12
1.75971e-12
9.39188e-13
5.55206e-13
3.3144e-13
2.01766e-13
1.13413e-13
5.53426e-14
2.3253e-14
8.07329e-15
1.06135e-14
2.42235e-14
6.0524e-14
1.22155e-13
3.98274e-10
6.23509e-10
1.07893e-09
9.28762e-10
5.42865e-10
3.46129e-10
2.03167e-10
7.42971e-11
1.90288e-11
3.71466e-12
1.11229e-12
5.59003e-13
3.0467e-13
1.79411e-13
1.11293e-13
6.83015e-14
3.7385e-14
1.65729e-14
6.09936e-15
5.40676e-15
1.00752e-14
2.68414e-14
6.03018e-14
4.25132e-10
6.98709e-10
1.12284e-09
9.29295e-10
5.66205e-10
3.89446e-10
2.22898e-10
7.64153e-11
1.76171e-11
3.07264e-12
6.89236e-13
3.12532e-13
1.64018e-13
8.85109e-14
5.26409e-14
3.47558e-14
2.18048e-14
1.12685e-14
4.12807e-15
2.59369e-15
5.15929e-15
1.22832e-14
2.82387e-14
4.40459e-10
7.54968e-10
1.13405e-09
9.33157e-10
6.0102e-10
4.32151e-10
2.12424e-10
6.38173e-11
1.48727e-11
2.4073e-12
4.03066e-13
1.62199e-13
8.40688e-14
4.12247e-14
2.20491e-14
1.45131e-14
1.03807e-14
6.53272e-15
2.60764e-15
1.07129e-15
1.47988e-15
3.54204e-15
9.85006e-15
4.5303e-10
7.62958e-10
1.13612e-09
9.27211e-10
6.109e-10
4.59101e-10
1.89898e-10
5.37312e-11
1.18102e-11
1.67873e-12
2.12175e-13
7.96467e-14
4.02402e-14
1.8261e-14
8.3813e-15
4.91304e-15
3.80065e-15
2.90413e-15
1.40732e-15
4.99399e-16
5.06306e-16
1.07199e-15
2.4162e-15
4.69861e-10
7.558e-10
1.12436e-09
9.13708e-10
6.17944e-10
4.11052e-10
1.49931e-10
3.93785e-11
7.38365e-12
9.09406e-13
9.41554e-14
3.24333e-14
1.69836e-14
7.46346e-15
2.94675e-15
1.38232e-15
1.03133e-15
9.33396e-16
6.27827e-16
2.42843e-16
1.3193e-16
1.86984e-16
4.76876e-16
4.98682e-10
7.31846e-10
1.09343e-09
8.61732e-10
5.94359e-10
2.88269e-10
8.74934e-11
2.27039e-11
3.11149e-12
3.21084e-13
2.88611e-14
1.00166e-14
5.67577e-15
2.57451e-15
9.36251e-16
3.36257e-16
1.94755e-16
2.02966e-16
2.05868e-16
1.10931e-16
3.98463e-17
4.39025e-17
8.15059e-17
5.11338e-10
6.86392e-10
1.04921e-09
7.08838e-10
4.24812e-10
1.26331e-10
3.80506e-11
9.03469e-12
9.83839e-13
7.0791e-14
5.47316e-15
2.1104e-15
1.3475e-15
6.57153e-16
2.37902e-16
7.01789e-17
2.85199e-17
3.01716e-17
4.4764e-17
4.28518e-17
1.36461e-17
8.4011e-18
1.31283e-17
5.5766e-10
5.7232e-10
9.05642e-10
4.6468e-10
1.13931e-10
2.54689e-11
7.46677e-12
1.47706e-12
1.12684e-13
5.19429e-15
4.35224e-16
2.36365e-16
1.78156e-16
9.72508e-17
3.69187e-17
1.0122e-17
3.04107e-18
3.3596e-18
7.44714e-18
1.19761e-17
5.74273e-18
2.10222e-18
1.87849e-18
0.00201274
0.0029629
0.00191175
0.00117373
0.00273838
0.00339318
0.00309622
0.00282823
0.00939805
0.010439
0.0104407
0.0104366
0.0104369
0.0104362
0.0104411
0.0089675
0.000882248
0.00692845
0.00474042
6.35104e-05
6.11018e-05
6.09257e-05
6.11024e-05
6.43886e-05
6.09671e-05
6.12809e-05
0.000268036
0.000609236
6.13588e-05
0.000130477
0.00110729
0.00141
0.000771456
0.000291892
1.76874e-05
0.00010143
-1.25382e-24
-2.52889e-24
-7.59745e-11
1.11822e-19
8.90445e-07
1.67563e-06
2.56636e-06
3.16814e-06
2.62662e-06
4.81414e-06
4.82375e-06
4.3736e-06
7.86775e-07
3.58674e-06
3.55203e-06
8.49507e-07
6.58627e-08
1.84544e-08
1.50843e-08
1.50845e-08
1.94694e-08
6.72012e-08
1.78498e-07
3.81019e-07
1.90544e-08
1.01129e-06
2.66713e-06
2.06255e-06
3.643e-08
1.58043e-06
2.93001e-06
3.01229e-06
1.31956e-07
6.96261e-07
1.45229e-06
2.40021e-06
6.9792e-07
1.10844e-07
1.07571e-07
3.6958e-09
1.34903e-07
7.72079e-08
3.25739e-08
3.82299e-09
1.01948e-07
6.96394e-08
6.02213e-08
2.50074e-08
9.70059e-08
1.0362e-07
1.03621e-07
9.85525e-08
6.03562e-08
6.55595e-08
1.0362e-07
1.00861e-07
1.66885e-08
1.18855e-08
3.86657e-08
4.57731e-08
3.77587e-09
5.27827e-09
4.92544e-09
1.03339e-08
1.1538e-09
1.301e-09
1.86326e-09
1.54364e-09
2.71029e-10
3.00668e-10
2.80971e-10
3.10288e-10
5.18719e-11
5.60889e-11
5.96724e-11
4.70134e-11
6.44616e-12
7.04803e-12
6.82586e-12
6.67278e-12
1.14077e-12
1.3647e-12
1.64026e-12
1.77265e-12
5.8494e-13
7.44064e-13
9.23668e-13
1.19829e-12
4.09881e-13
5.40256e-13
7.43083e-13
9.41192e-13
2.92922e-13
4.07653e-13
5.5998e-13
7.85612e-13
1.99345e-13
2.69312e-13
4.00149e-13
5.42022e-13
1.05692e-13
1.51803e-13
2.28295e-13
3.42392e-13
4.89314e-14
7.16494e-14
1.21093e-13
1.76225e-13
1.69821e-14
2.91355e-14
4.39939e-14
7.57468e-14
4.96806e-15
6.76873e-15
1.26163e-14
2.14859e-14
8.40002e-16
1.36562e-15
2.1087e-15
4.12355e-15
1.30089e-16
1.63084e-16
2.70602e-16
4.60338e-16
1.61679e-17
1.72162e-17
2.22198e-17
3.59694e-17
1.84234e-18
1.29116e-18
1.83405e-18
1.99107e-18
0.000995332
0.00099912
0.0011779
0.00203569
0.00207573
0.00148391
0.0015157
0.00293175
0.0122301
0.0191138
7.07264e-05
7.02934e-05
0.000147945
0.000775033
0.00322583
0.00543177
0.00406353
0.00165457
0.00101185
0.00304629
0.00374407
0.00266106
0.00171
0.00223728
0.011639
0.0226951
0.0231368
0.0231367
0.00972486
7.03823e-05
7.02692e-05
7.7989e-05
0.000462543
0.00161572
0.00469339
0.00660472
0.00318284
0.00101507
0.010436
0.0104347
0.00543483
0.00216281
0.00955961
0.0164128
0.0151099
0.019819
0.0219095
0.0111818
0.000392017
0.000449194
7.44555e-05
0.00248381
0.00667146
0.00673722
0.00673722
0.00391621
0.00103711
0.00724341
0.00793473
0.00801963
0.00739
0.0018994
0.000644566
0.000414934
0.00041817
0.00123404
0.00345856
0.00295747
0.00159187
0.000508612
0.00146418
0.00314132
0.0067353
0.0067279
0.00438164
0.00296953
6.34644e-05
5.97439e-05
5.92449e-05
0.000115111
0.000739793
7.13586e-05
7.49609e-05
0.000598201
0.000938238
0.000895331
0.000798982
0.000485118
0.000475893
0.000848465
0.00131566
0.00164154
0.00279225
0.00199571
0.00207773
6.42206e-05
0.000115428
0.000206826
0.000137154
7.96702e-05
7.66514e-05
7.44456e-05
5.0595e-05
5.09698e-05
0.000402932
0.000745389
0.000709645
0.000497016
0.000481207
0.000621524
0.000773773
0.000879714
0.000920676
0.00295762
0.000878713
0.00121366
0.00129413
0.00120148
0.000704721
0.000377062
0.000240952
2.90582e-05
1.85487e-05
0.000709967
0.00172622
0.0017267
0.00146089
0.000783859
0.000837081
0.00137716
0.00293592
0.00569312
0.00680144
0.0014044
0.00132135
0.00118606
0.000958738
0.000716432
0.000378126
0.000195122
3.53863e-05
1.83147e-05
0.000137266
0.000776715
0.00124431
0.00131643
0.00110814
0.00157664
0.0040653
0.00680144
0.00680144
0.00680144
9.10257e-05
3.4628e-05
-1.75827e-10
-7.91785e-26
3.15906e-26
3.61511e-25
9.27703e-11
8.37061e-06
1.80745e-05
7.05416e-11
5.75507e-09
1.68586e-08
3.04491e-06
5.10325e-05
0.000313803
0.00107058
0.00339541
0.00649925
0.00680144
-4.75752e-20
2.82775e-24
8.97441e-09
4.20966e-08
2.27758e-08
4.09295e-10
3.18495e-10
-7.11588e-12
-2.29539e-17
4.66524e-09
2.21695e-07
6.12677e-07
8.57482e-08
4.33929e-08
7.68873e-06
4.49127e-06
7.04155e-05
0.00135919
0.00306471
1.96999e-06
3.17668e-07
5.2259e-07
6.10729e-07
1.03457e-07
1.20398e-08
2.33255e-09
1.69051e-09
-3.22195e-27
-1.92197e-25
6.36523e-07
1.54555e-06
1.41833e-06
5.3244e-08
1.80633e-06
1.11101e-06
7.98814e-07
1.91663e-06
1.1963e-06
2.63222e-06
4.51959e-07
7.08004e-07
7.31306e-07
1.81038e-07
2.19678e-08
2.95565e-09
1.70468e-09
8.19803e-09
1.87668e-08
1.63343e-08
2.59239e-08
1.85482e-07
2.57084e-07
9.43512e-07
1.0605e-06
1.77032e-07
5.10939e-07
1.20687e-06
1.50262e-08
2.53393e-08
4.48895e-08
1.19558e-07
2.76284e-08
2.7993e-08
3.71981e-08
1.09577e-08
8.06026e-08
7.75437e-08
4.50555e-08
1.27399e-08
1.18463e-08
3.04343e-07
1.86196e-06
2.45883e-06
1.29572e-06
3.40896e-07
2.17806e-06
1.53101e-08
1.5168e-08
7.81847e-08
9.74223e-08
5.10484e-07
9.64624e-07
1.12722e-06
5.92119e-07
2.05768e-07
7.3517e-08
7.59324e-08
3.10145e-08
1.19393e-08
1.00169e-06
2.24627e-06
2.46518e-06
2.30525e-06
3.45884e-07
2.31422e-06
3.8986e-08
1.51697e-08
2.22109e-07
9.00078e-07
1.65697e-06
1.65588e-06
1.64642e-06
1.29274e-06
1.2374e-07
2.43922e-08
8.4415e-08
1.44995e-07
3.65192e-07
2.32393e-06
2.46518e-06
2.46424e-06
1.03064e-06
3.27582e-07
2.33932e-06
1.31916e-06
6.33302e-07
9.14226e-07
1.63708e-06
1.65362e-06
1.65558e-06
1.65547e-06
1.4804e-06
2.43525e-08
2.43422e-08
6.02537e-08
3.71247e-07
4.68534e-07
1.0687e-06
1.72642e-06
1.14501e-06
7.62249e-07
1.2738e-06
2.56168e-06
3.02942e-06
2.59531e-06
1.50116e-06
9.5273e-07
1.65442e-06
1.65523e-06
1.65558e-06
5.96854e-07
2.42722e-08
3.23027e-08
7.68659e-08
7.67586e-08
2.15901e-07
3.89926e-07
7.37655e-07
1.01579e-06
1.63203e-06
2.60746e-06
2.61959e-06
2.97465e-06
2.96886e-06
8.36917e-07
5.78583e-07
5.49969e-07
1.53543e-06
1.33419e-06
2.4081e-07
3.59479e-07
1.92644e-07
8.83519e-08
8.25192e-08
6.19458e-07
1.66511e-06
1.67468e-06
1.51116e-06
7.36297e-07
1.31439e-06
1.43983e-06
6.48726e-07
1.18212e-06
1.15242e-06
9.74503e-08
9.7312e-08
7.2022e-07
3.17217e-07
8.08524e-08
5.53839e-07
9.45563e-07
9.47248e-07
8.4599e-07
7.71381e-07
1.07304e-06
8.75222e-07
2.05848e-07
1.69155e-07
1.77669e-07
2.64042e-07
3.69021e-09
5.86637e-08
6.12885e-07
1.57991e-07
9.43081e-08
7.91901e-08
3.03222e-08
2.98336e-08
9.17524e-08
6.09793e-07
1.19276e-06
1.19151e-06
1.1925e-06
7.84357e-07
4.48433e-08
5.06927e-08
7.13331e-08
7.1574e-08
7.18118e-08
1.62469e-08
7.95161e-09
3.82535e-08
1.07638e-07
8.17082e-08
3.54602e-08
3.05012e-08
2.53365e-08
9.3524e-09
2.39853e-09
1.52616e-07
6.50209e-07
9.3171e-07
2.09508e-07
4.45196e-08
5.83411e-08
1.47717e-07
7.89004e-07
8.33258e-07
5.48895e-08
1.9388e-08
1.43428e-09
1.43627e-09
3.19189e-08
1.57922e-08
9.31158e-10
3.53656e-10
3.1323e-09
2.3743e-09
5.75182e-10
5.76715e-10
5.51587e-08
8.79431e-10
3.75918e-08
2.03906e-08
5.00231e-08
8.77322e-07
1.06074e-06
5.55239e-08
2.03252e-08
6.14266e-09
1.73444e-09
4.30211e-10
4.15574e-10
4.13302e-10
3.53057e-10
3.4788e-10
3.83433e-10
5.75861e-10
8.01394e-10
8.04002e-10
8.77648e-10
8.79431e-10
6.54016e-09
6.2985e-09
2.21475e-07
9.37888e-07
3.54861e-08
7.92797e-09
3.16052e-09
1.49678e-09
7.67542e-10
5.42927e-10
4.90418e-10
4.07473e-10
3.37325e-10
3.68021e-10
4.57075e-10
7.11572e-10
9.48713e-10
1.04791e-09
9.20803e-10
2.96555e-09
5.98202e-09
1.60791e-08
2.4317e-07
8.59798e-09
3.84183e-09
1.51762e-09
5.79982e-10
5.01068e-10
4.22115e-10
3.36728e-10
2.75125e-10
2.59807e-10
2.8566e-10
3.61276e-10
4.93655e-10
6.64369e-10
7.72864e-10
9.17399e-10
2.22299e-09
4.78432e-09
4.35312e-09
6.35447e-08
1.21474e-09
6.69417e-10
2.99555e-10
2.06423e-10
1.77846e-10
1.48944e-10
1.29902e-10
1.20199e-10
1.43384e-10
1.97453e-10
2.91132e-10
4.28236e-10
6.03877e-10
7.99166e-10
9.50425e-10
1.66373e-09
3.16209e-09
2.82543e-09
2.47182e-08
2.14458e-10
1.03193e-10
7.13797e-11
5.86135e-11
5.03716e-11
4.53605e-11
4.99519e-11
6.54222e-11
9.84492e-11
1.60178e-10
2.66061e-10
4.05789e-10
5.94789e-10
8.28863e-10
1.03107e-09
1.67281e-09
2.00126e-09
2.12881e-09
2.5577e-08
3.077e-11
2.11101e-11
1.74852e-11
1.64486e-11
1.79649e-11
2.18157e-11
2.95865e-11
4.47433e-11
7.92058e-11
1.52408e-10
2.94436e-10
4.85806e-10
6.59615e-10
8.53364e-10
1.20831e-09
1.85633e-09
1.85856e-09
1.91263e-09
3.69847e-08
5.58398e-12
5.52935e-12
6.29776e-12
7.99002e-12
1.09336e-11
1.61212e-11
2.49318e-11
4.10543e-11
7.56659e-11
1.52949e-10
3.49748e-10
6.44396e-10
9.29602e-10
1.02617e-09
1.61004e-09
1.98287e-09
1.8781e-09
3.02324e-09
3.95648e-08
2.20997e-12
2.9594e-12
4.25089e-12
6.47636e-12
1.04016e-11
1.6834e-11
2.72399e-11
4.4198e-11
7.83128e-11
1.49337e-10
4.23995e-10
8.48251e-10
1.24729e-09
1.56122e-09
1.92645e-09
2.04541e-09
1.98218e-09
6.80668e-09
3.95722e-08
1.55941e-12
2.46556e-12
3.92484e-12
6.58924e-12
1.14761e-11
1.96918e-11
3.24624e-11
5.12888e-11
8.4587e-11
1.60194e-10
5.44677e-10
1.13107e-09
1.58054e-09
1.90961e-09
2.03645e-09
2.04582e-09
2.17945e-09
1.24526e-08
2.86016e-08
1.35242e-12
2.22987e-12
3.81723e-12
6.84746e-12
1.26278e-11
2.26934e-11
3.79731e-11
5.92469e-11
9.44316e-11
1.95419e-10
7.68725e-10
1.53736e-09
1.96697e-09
2.03907e-09
1.78719e-09
1.77711e-09
2.15962e-09
1.02656e-08
1.48271e-08
1.08127e-12
1.89812e-12
3.54115e-12
6.81069e-12
1.32046e-11
2.50409e-11
4.32046e-11
6.94724e-11
1.10915e-10
2.44641e-10
1.03572e-09
2.07702e-09
2.61685e-09
1.99638e-09
1.46112e-09
1.48074e-09
1.50737e-09
2.11443e-09
9.91925e-09
8.07492e-13
1.50204e-12
2.9639e-12
6.2495e-12
1.30333e-11
2.61243e-11
4.69122e-11
7.81602e-11
1.27035e-10
2.60017e-10
1.16833e-09
2.92719e-09
4.39629e-09
4.82405e-09
1.46105e-09
1.46102e-09
1.46102e-09
9.86764e-09
8.81175e-09
5.11502e-13
1.04883e-12
2.32503e-12
5.30746e-12
1.17987e-11
2.50433e-11
4.77358e-11
8.02862e-11
1.29599e-10
2.65439e-10
1.21257e-09
4.08763e-09
6.93412e-09
1.14317e-08
1.43268e-08
2.41985e-09
1.59851e-08
3.89497e-08
8.33422e-09
2.85981e-13
6.37853e-13
1.55511e-12
3.8629e-12
9.4466e-12
2.13499e-11
4.38336e-11
7.8605e-11
1.29545e-10
2.90039e-10
1.73686e-09
6.84603e-09
1.0319e-08
1.04511e-08
3.08276e-08
4.85979e-08
6.07899e-08
5.45488e-08
6.37469e-09
1.18503e-13
3.06607e-13
8.44545e-13
2.34031e-12
6.25666e-12
1.56916e-11
3.52202e-11
6.93009e-11
1.21305e-10
2.64505e-10
1.40793e-09
7.97708e-09
2.00559e-08
2.08518e-08
1.87008e-08
4.97895e-08
6.31525e-08
4.17819e-08
5.1419e-09
3.95843e-14
1.08061e-13
3.32589e-13
1.05974e-12
3.28849e-12
9.3864e-12
2.38793e-11
5.2604e-11
1.01574e-10
1.74226e-10
4.51734e-10
4.78803e-09
2.31538e-08
3.93869e-08
3.93209e-08
3.31035e-08
5.90929e-08
2.10483e-08
4.88593e-09
7.30393e-15
2.3571e-14
8.23934e-14
3.19422e-13
1.20731e-12
4.16047e-12
1.22895e-11
3.19404e-11
7.00974e-11
1.28671e-10
2.1989e-10
6.31416e-10
9.00458e-09
3.29627e-08
6.4816e-08
4.96656e-08
2.75664e-08
5.46006e-09
4.88522e-09
8.5132e-16
2.39027e-15
9.45434e-15
4.45174e-14
2.28272e-13
1.09841e-12
4.24718e-12
1.36704e-11
3.65581e-11
8.23659e-11
1.52739e-10
2.28877e-10
2.27768e-10
1.01081e-08
4.06872e-08
6.62943e-08
2.81585e-08
5.5253e-09
2.47383e-08
4.8448e-17
1.23969e-16
5.5058e-16
3.28312e-15
2.26708e-14
1.52139e-13
8.40034e-13
3.64853e-12
1.24625e-11
3.46343e-11
7.89412e-11
1.49889e-10
2.10915e-10
7.72497e-11
3.17657e-09
5.14664e-08
3.09907e-08
6.78022e-09
2.47802e-08
2.06676e-18
3.18643e-18
9.7836e-18
7.00459e-17
6.9638e-16
7.08747e-15
6.46854e-14
4.16684e-13
1.89984e-12
6.70536e-12
1.85469e-11
3.98324e-11
7.23079e-11
6.86902e-11
1.76144e-12
4.63957e-14
3.73606e-08
2.64485e-08
9.79278e-08
)
;

boundaryField
{
    leftWall
    {
        type            zeroGradient;
    }
    rightWall
    {
        type            zeroGradient;
    }
    lowerWall
    {
        type            zeroGradient;
    }
    atmosphere
    {
        type            inletOutlet;
        inletValue      uniform 0;
        value           nonuniform List<scalar> 
46
(
5.5766e-10
5.72321e-10
9.05643e-10
4.6468e-10
1.13931e-10
2.54689e-11
0
0
0
0
0
0
1.78156e-16
9.72508e-17
3.69187e-17
1.0122e-17
3.04107e-18
3.3596e-18
7.44714e-18
1.19761e-17
5.74273e-18
0
0
0
0
0
0
0
0
0
0
0
0
0
0
0
0
0
0
0
0
0
0
3.73606e-08
2.64485e-08
9.79278e-08
)
;
    }
    defaultFaces
    {
        type            empty;
    }
}


// ************************************************************************* //
