/*--------------------------------*- C++ -*----------------------------------*\
| =========                 |                                                 |
| \\      /  F ield         | OpenFOAM: The Open Source CFD Toolbox           |
|  \\    /   O peration     | Version:  2312                                  |
|   \\  /    A nd           | Website:  www.openfoam.com                      |
|    \\/     M anipulation  |                                                 |
\*---------------------------------------------------------------------------*/
FoamFile
{
    version     2.0;
    format      ascii;
    arch        "LSB;label=32;scalar=64";
    class       volScalarField;
    location    "5.65";
    object      alphas;
}
// * * * * * * * * * * * * * * * * * * * * * * * * * * * * * * * * * * * * * //

dimensions      [0 0 0 0 0 0 0];

internalField   nonuniform List<scalar> 
2268
(
2
2
2
2
2
2
2
2
2
2
2
2
2
2
2
2
2
2
2
2
1.99996
1.99996
1.99996
2
2
2
2
2
2
2
2
2
2
2
2
2
2
2
2
2
2
2
2
1.99999
1.99997
1.99998
2
2
2
2
2
2
2
2
2
2
2
2
2
2
2
2
2
2
2
2
2
2
2
2
2
2
2
2
2
2
2
2
2
2
2
2
2
2
2
2
2
2
2
2
2
2
1.99934
1.99931
1.99904
1.99889
1.9991
1.99971
2.00002
2.00008
2.00001
1.99994
1.99994
1.99995
1.99989
1.99994
1.99995
1.99999
2
2
2
2
2
2
2
1.1993
1.20224
1.20799
1.22277
1.25629
1.31213
1.369
1.43436
1.50694
1.5824
1.65654
1.72907
1.79571
1.85167
1.89898
1.94653
1.99261
1.98177
1.9661
1.96842
1.96966
1.97103
1.99341
0.00573173
0.00487947
0.00494322
0.00690645
0.00731531
0.00831676
0.0268055
0.0521312
0.0868218
0.129973
0.181842
0.246915
0.332696
0.441785
0.578322
0.744876
0.939817
1.19111
1.35808
1.44348
1.48264
1.50399
1.49878
0.00178645
0.00161983
0.00158436
0.00162814
0.00210319
0.00129151
0.000905366
0.000604911
0.000615047
0.00132063
0.0018484
0.000947928
0.000352714
0.000354842
0.000490574
0.00479123
0.0347811
0.0934477
0.134723
0.1535
0.173347
0.190583
0.182983
1.95388
1.95691
1.96851
1.97378
1.97179
1.96975
1.96296
1.96154
1.96088
1.96092
1.96018
1.9602
1.96582
1.9676
1.96766
1.968
1.97044
1.97177
1.97157
1.89506
1.9256
1.94695
1.95631
1.96891
1.97326
1.97491
1.97362
1.96794
1.95762
1.95005
1.95002
1.95235
1.95807
1.96203
1.96348
1.95324
1.9323
1.91726
1.06544
1.16908
1.37458
1.58888
1.72273
1.78622
1.81511
1.8137
1.763
1.6868
1.62472
1.60165
1.58823
1.58071
1.5943
1.60673
1.57996
1.53268
1.53241
0.226307
0.104837
0.255536
0.472513
0.716104
0.845174
0.832606
0.708276
0.521307
0.417486
0.368584
0.376471
0.518052
0.520386
0.622166
0.82657
0.772802
0.60065
0.730699
0.0653165
0.0223884
0.0238105
0.0346237
0.0867352
0.167339
0.163
0.143398
0.107052
0.0351137
0.0278492
0.0436996
0.180684
0.274226
0.29147
0.473343
0.301416
0.112346
0.317732
0.02292
0.0256489
0.0265215
0.0258783
0.0256438
0.0318406
0.0719112
0.0872639
0.0405682
0.0229816
0.0231846
0.022597
0.0256584
0.122078
0.33848
0.549481
0.295405
0.0971931
0.300236
0.0313072
0.0223387
0.0244524
0.02875
0.0251844
0.020141
0.0215877
0.0370368
0.0324771
0.023349
0.0529309
0.0234016
0.0197592
0.0736834
0.293716
0.488723
0.155355
0.097845
0.335253
0.0451522
0.0172994
0.0131014
0.0313511
0.0252284
0.0197508
0.0208525
0.0208188
0.0180649
0.0396583
0.250656
0.127084
0.114448
0.161493
0.132131
0.283956
0.100653
0.0984022
0.28648
0.00647643
0.00185952
0.00161903
0.00193871
0.00483311
0.0157231
0.0126231
0.00275028
0.00333779
0.0105017
0.0117711
0.00473861
0.00103948
0.000645203
0.000409101
0.000322618
0.000615733
0.000798275
0.00140132
0.000865632
0.000874853
0.000905198
0.000433932
0.0851316
0.0623525
0.0746216
0.110627
0.157241
0.186704
0.203746
0.199013
0.217005
0.255647
0.266272
0.223443
0.14127
0.0607521
0.0371995
0.0562088
0.0698338
0.056754
0.0610871
0.0425136
0.0360317
0.060391
0.102472
0.641814
0.696794
0.734633
0.786057
0.843713
0.873949
0.871397
0.937989
0.939958
0.920704
0.92736
0.925244
0.868822
0.822183
0.835154
0.791834
0.710194
0.65375
0.57954
0.565807
0.586887
0.664487
0.751426
1.03969
1.01819
1.03052
1.05345
1.03559
1.00156
1.00289
1.03022
1.16098
1.16045
1.12367
1.00014
1.00085
1.01071
1.0423
1.05764
1.03867
1.01464
1.00788
1.00676
1.00691
1.01072
1.0318
1.00059
1.0006
1.00212
1.00933
1.00437
1.00059
1.03504
1.14738
1.16008
1.11011
1.00051
1.00022
1.0002
1.00015
1.00009
1.00014
1.00025
1.00015
0.999721
0.999366
0.999749
1.00059
1.00082
1.00055
1.00052
1.0005
1.00036
1.00031
1.0006
1.00596
1.04175
1.03621
1.00018
1
0.999993
1.00006
1.00009
0.999825
0.999734
0.999793
0.999836
0.999821
0.99982
0.995507
0.9918
0.998379
1.00039
1.00035
1.00036
1.00021
0.999646
0.996906
1.03685
1.15946
1.27535
1.38481
1.45929
1.49661
1.48531
1.41764
1.32206
1.22445
1.13884
1.07509
1.01205
0.997397
0.996416
0.987483
0.981134
1.00149
1.005
1.09599
1.31056
1.59885
1.96204
2.38499
2.62708
2.77921
2.871
2.91676
2.92862
2.91551
2.88572
2.83886
2.77195
2.68055
2.55963
2.39402
2.17333
1.97182
1.80153
1.66397
1.91242
2.093
2.35075
2.61232
2.83072
2.9661
2.99468
2.99891
2.9997
2.99986
2.99997
2.99995
2.99985
2.99902
2.99863
2.99884
2.99943
2.99975
2.99777
2.99606
2.96647
2.9151
2.88144
2.99881
2.99931
2.99886
2.99636
2.99686
2.99919
3
3
3
3
3
2.99999
2.99999
2.99996
2.99997
2.99996
2.99996
2.99999
3
3
2.99877
2.99818
2.99997
2.99988
2.99997
2.99992
3
3
3
3
3
3
3
3
3
2.99995
2.99994
2.99994
2.99993
2.99993
2.99994
2.99999
2.99999
2.99996
2.99996
2.99996
3
3
3
3
3
3
3
3
3
3
3
2.99999
2.99996
2.99996
2.99997
2.99994
2.99992
2.99995
2.99999
2.99987
2.99985
2.99985
2.99988
3
3
3
3
3
3
3
3
3
3
2.99999
3
3
3
2.99999
2.99997
2.99997
2.99998
2.99991
2.99985
2.99985
2.9999
2.99996
3
3
3
3
3
3
3
3
3
3
3
3
3
3
3
3
3
2.99999
2.99987
2.99986
2.99994
3
3
3
3
3
3
3
3
3
3
3
3
3
3
3
3
3
3
3
2.99999
2.99996
3
3
3
3
3
3
3
3
3
3
3
3
3
3
3
3
3
3
3
3
3
3
3
3
2.99999
2.99999
3
3
3
3
3
3
3
3
3
3
3
3
3
3
3
3
3
3
3
3
3
2.99997
2.99993
3
3
3
3
3
3
3
3
3
3
3
3
3
3
3
3
3
3
3
3
3
2.99997
2.99992
2.99993
3
3
3
3
3
3
3
3
3
3
3
3
3
3
3
3
3
3
3
3
3
2.99996
2.99983
3
3
3
3
3
3
3
3
3
3
3
3
3
3
3
3
3
3
3
3
3
3
2.99998
3
3
3
3
3
3
3
3
3
3
3
3
3
3
3
3
3
3
3
3
3
3
3
3
3
3
3
3
3
3
3
3
3
3
3
3
3
3
3
3
3
3
3
3
3
3
3
3
3
3
3
3
3
3
3
3
3
3
3
3
3
3
3
3
3
3
3
3
3
3
3
3
3
3
3
3
3
3
3
3
3
3
3
3
3
3
3
3
3
3
3
3
3
3
3
3
3
3
3
3
3
3
3
3
3
3
3
3
3
3
3
3
3
3
3
3
3
3
3
3
3
3
3
3
3
3
3
3
3
3
3
3
3
3
3
3
3
3
3
3
3
3
3
3
3
3
3
3
3
3
3
3
3
3
3
3
3
3
3
3
3
3
3
3
3
3
3
3
3
3
3
3
3
3
3
3
3
3
3
3
3
3
3
3
3
3
3
3
3
3
3
3
3
3
3
3
3
3
3
3
3
3
3
3
3
3
3
3
3
3
3
3
3
3
3
3
3
3
3
3
3
3
3
3
3
3
3
3
3
3
3
3
3
3
3
3
3
3
3
3
3
3
3
3
3
3
3
3
3
3
3
3
3
3
3
3
3
3
3
3
3
3
3
3
3
3
3
3
3
3
3
3
3
3
3
3
3
3
3
3
3
3
3
3
3
3
3
3
3
3
3
3
3
3
3
3
3
3
3
3
3
3
3
3
3
3
3
3
3
3
3
3
3
3
3
3
3
3
3
3
3
3
3
3
3
3
3
3
3
3
3
3
3
3
3
3
3
3
3
3
3
3
3
3
3
3
3
3
3
3
3
3
3
3
3
3
3
3
3
3
3
3
3
3
3
3
3
3
3
3
3
3
3
3
3
3
3
3
3
3
3
3
3
3
3
3
3
3
3
3
3
3
3
3
3
3
3
3
3
3
3
3
3
3
3
3
3
3
3
3
3
3
3
3
3
3
3
3
3
3
3
3
3
3
3
3
3
3
3
3
3
3
3
3
3
3
3
3
3
3
3
3
3
3
3
3
3
3
3
3
3
3
3
3
3
3
3
3
3
3
3
3
3
3
3
3
3
3
3
3
3
3
3
3
3
3
3
3
3
3
3
3
3
3
3
3
3
3
3
3
3
3
3
3
3
3
3
3
3
3
3
3
3
3
3
3
0.000581596
0.000599531
0.015097
0.0592195
0.0944566
0.0277698
0.0226041
0.0318478
0.818145
0.699857
0.40511
0.261684
1.07597
1.10123
1.05411
0.962213
1.01317
1.07337
1.09791
1.04544
1.0021
1.00415
1.0083
1.00321
0.98225
0.992996
1.00161
1.00075
1.53985
1.5042
1.41405
1.29871
2.86415
2.85071
2.8193
2.77275
2.99998
2.99999
2.99999
2.99999
2.99997
2.99991
2.99985
2.99984
2.99987
2.99987
2.99984
2.99984
2.99999
2.99999
2.99999
2.99999
3
3
2.99999
2.99999
2.99999
2.99999
2.99999
3
3
2.99999
2.99999
2.99999
3
2.99998
2.99994
2.99991
2.99998
2.99987
2.99984
2.99983
2.99982
2.99983
2.99983
2.99983
2.99983
2.99982
2.99984
2.99984
3
3
3
2.99998
3
3
3
3
3
3
3
3
3
3
3
3
3
3
3
3
3
3
3
3
3
3
3
3
3
3
3
3
3
3
3
3
3
3
3
3
3
3
3
3
3
3
3
3
3
3
3
3
3
3
3
3
3
3
3
3
3
3
3
3
3
3
3
3
3
3
3
3
3
3
3
3
3
3
3
3
3
3
3
3
3
3
3
3
0.0672861
0.0123116
0.0129736
0.0407857
0.0819295
0.0173476
0.0139732
0.0149974
0.0235336
0.157493
0.41704
0.236856
0.164219
0.124252
0.0873934
0.103087
0.101118
0.101842
0.23276
0.0389346
0.0178248
0.0157458
0.188192
0.230544
0.0206562
0.0134799
0.0299778
0.226516
0.798157
0.792655
0.0947713
0.0816127
0.123433
0.12335
0.103789
0.103099
0.132994
0.131199
0.190389
0.252255
0.323034
0.492751
0.451758
0.160623
0.09775
0.518146
1.05238
1.19567
0.834398
0.264416
0.109895
0.141002
0.137396
0.12949
0.164184
0.172011
0.157568
0.874761
1.02933
1.11765
1.04319
1.02159
0.909816
0.959102
1.0437
1.1106
1.1971
1.18029
1.05092
0.819761
0.699647
0.731425
0.820245
0.805795
0.670687
0.524139
1.01063
1.06944
1.09268
1.14813
1.24907
1.27678
1.12888
1.0097
1.00347
1.01105
1.01333
1.01855
1.0175
1.00251
1.00301
1.00794
1.01198
1.01021
1.00666
1.00099
1.00329
0.993449
0.97951
1.00654
1.02603
1.00667
1.00441
1.00234
1.00196
1.00245
1.00265
1.0035
1.0013
1.00117
1.00117
1.001
1.00097
1.00085
1.00061
1.00069
0.998969
0.983945
0.966082
0.997598
1.00096
1.00136
1.00122
1.00151
1.00171
1.0019
1.00157
1.00104
1.00028
0.999896
1.00027
1.00972
1.03784
1.18687
1.09618
1.04109
1.0139
0.964735
0.965563
0.991888
0.998883
0.999481
1.00034
1.00174
1.00153
1.03123
1.15029
1.38136
1.59328
1.83163
2.08522
2.29466
2.70461
2.58123
2.42295
2.20923
1.92515
1.54517
1.23657
1.11721
1.12377
1.30322
1.54718
1.76624
2.144
2.61497
2.87533
2.97718
2.99092
2.99334
2.9946
2.99935
2.99486
2.9917
2.99511
2.97709
2.84943
2.65066
2.47982
2.45959
2.67851
2.84435
2.95816
2.99827
2.99869
2.99929
2.99999
2.99999
2.99999
2.99996
2.99995
2.99995
2.99996
2.99908
2.99968
2.99915
2.99414
2.98977
2.97796
2.96786
2.97861
2.99302
2.99838
2.9999
2.99992
2.99992
2.99995
2.99998
2.99991
2.99993
2.99995
2.99996
2.99997
3
3
3
3
3
3
3
2.99939
2.99933
2.99961
2.99991
2.99966
2.99964
2.99992
2.99989
2.99999
2.99999
2.99998
2.99999
3
3
3
3
3
3
3
3
3
3
2.9998
2.99958
2.99958
2.99989
2.99989
2.99999
2.99999
2.99999
3
3
3
2.99998
2.99998
2.99999
3
2.99998
2.99997
2.99997
2.99969
2.99958
2.99958
2.99979
2.99995
2.99988
3
3
2.99999
2.99999
2.99999
2.99998
2.99993
2.99992
2.99996
2.99996
2.99994
2.99994
2.99994
2.99984
2.99981
2.99991
2.99998
2.99994
2.99987
3
3
2.99999
2.99997
2.9999
2.99987
2.99987
2.99987
2.99997
2.99999
2.99999
2.99989
2.99979
2.99994
3
3
2.99997
2.99993
2.99988
2.9999
2.9999
2.99994
2.99991
2.99987
2.99987
2.99987
2.99996
2.99999
2.99999
2.99997
2.99978
2.99977
2.99982
2.99998
2.99995
2.99993
2.99994
2.99999
2.99983
2.99985
2.99986
2.99986
2.99989
2.99991
2.99991
2.99991
2.99994
2.99998
2.99996
2.99984
2.99976
2.99978
2.99985
2.99988
2.99992
2.99999
2.99999
2.99983
2.99986
2.99987
2.99987
2.99986
2.99986
2.99986
2.99989
2.99989
2.99989
2.99991
2.99994
2.99993
2.99991
2.99992
2.99996
2.99996
2.99998
2.99999
2.99986
2.99995
2.99992
2.99987
2.99988
2.99996
2.99996
2.99993
2.99989
2.99988
2.99989
2.9999
2.99997
2.99998
2.99998
2.99997
2.99994
2.99997
2.99999
2.99998
3
2.99999
2.99996
2.99995
2.99996
2.99997
2.99998
2.99998
2.99997
2.99993
2.99992
2.99993
2.99997
2.99996
2.99994
2.99994
2.99996
2.99999
3
3
3
3
3
2.99999
2.99998
2.99998
2.99999
3
3
3
2.99999
2.99994
2.99994
2.99994
2.99994
2.99998
3
3
3
3
3
3
3
3
3
3
3
3
3
3
3
2.99997
2.99994
2.99997
3
3
3
3
3
3
3
3
3
3
3
3
3
3
3
3
3
2.99999
3
3
2.99999
3
3
3
3
3
3
3
3
3
3
3
3
3
3
3
3
3
3
2.99999
3
3
3
3
3
3
3
3
3
3
3
3
3
3
3
3
3
3
2.99999
3
3
3
3
3
3
3
3
3
3
3
3
3
3
3
3
3
3
2.99999
3
3
3
3
3
3
3
3
3
3
3
3
3
3
3
3
3
3
3
3
3
3
3
3
3
3
3
3
3
3
3
3
3
3
3
3
3
3
3
3
3
3
3
3
3
3
3
3
3
3
3
3
3
3
3
3
3
3
3
3
3
3
3
3
3
3
3
3
3
3
3
3
3
3
3
3
3
3
3
3
3
3
3
3
3
3
3
3
3
3
3
3
3
3
3
3
3
3
3
3
3
3
3
3
3
3
3
3
3
3
3
3
3
3
3
3
3
3
3
3
3
3
3
3
3
3
3
3
3
3
3
3
3
3
3
3
3
3
3
3
3
3
3
3
3
3
3
3
3
3
3
3
3
3
3
3
3
3
3
3
3
3
3
2.99999
3
3
3
3
3
3
3
3
3
3
3
3
3
3
3
3
3
3
2.99999
2.99999
3
3
3
3
3
3
3
3
3
3
3
3
3
3
3
3
3
2.99999
2.99999
2.99999
3
3
3
3
3
3
3
3
3
3
3
3
3
3
3
3
3
2.99999
2.99999
2.99999
3
3
3
2.99999
3
3
3
3
3
3
3
3
3
3
3
3
3
2.99999
2.99999
2.99999
3
3
2.99999
3
3
3
3
3
3
3
3
3
3
3
3
3
3
2.99999
2.99999
3
3
2.99999
3
3
3
3
3
3
3
3
3
3
3
3
3
3
3
3
2.99999
3
3
)
;

boundaryField
{
    leftWall
    {
        type            calculated;
        value           nonuniform List<scalar> 
50
(
2
2
2
2
1.99934
1.1993
0.00573173
0.00178645
0.00647643
0.0851316
0.641814
1.03969
1.00059
1.00055
1.00039
1.00149
1.91242
2.99881
2.99988
3
3
3
3
3
3
3
3
3
3
3
3
3
3
3
3
3
3
3
3
3
3
3
3
3
3
3
3
3
3
3
)
;
    }
    rightWall
    {
        type            calculated;
        value           nonuniform List<scalar> 
50
(
1.97157
1.91726
1.53241
0.730699
0.317732
0.300236
0.335253
0.28648
0.23276
0.131199
0.157568
0.524139
1.00666
1.00085
1.03784
2.29466
2.9946
2.99996
2.99991
2.99989
2.99989
2.99988
2.99987
2.99988
2.99999
2.99999
2.99999
2.99999
2.99999
3
3
2.99999
2.99999
2.99999
2.99999
3
3
3
3
3
3
3
3
3
3
3
2.99999
2.99999
2.99999
3
)
;
    }
    lowerWall
    {
        type            calculated;
        value           nonuniform List<scalar> 
62
(
2
2
2
2
2
2
2
2
2
2
2
2
2
2
2
2
2
2
2
2
1.99996
1.99996
1.99996
1.99996
1.99998
2
2
2
1.99341
1.49878
0.182983
0.000581596
0.000599531
0.015097
0.0592195
1.95388
1.89506
1.06544
0.226307
0.0653165
0.02292
0.0313072
0.0451522
1.95388
1.95691
1.96851
1.97378
1.97179
1.96975
1.96296
1.96154
1.96088
1.96092
1.96018
1.9602
1.96582
1.9676
1.96766
1.968
1.97044
1.97177
1.97157
)
;
    }
    atmosphere
    {
        type            calculated;
        value           nonuniform List<scalar> 
46
(
3
3
3
3
3
3
3
3
3
3
3
3
3
3
3
3
3
3
3
3
3
3
3
3
3
3
3
3
3
3
3
3
3
3
3
3
3
3
3
3
3
3
3
2.99999
3
3
)
;
    }
    defaultFaces
    {
        type            empty;
    }
}


// ************************************************************************* //
