/*--------------------------------*- C++ -*----------------------------------*\
| =========                 |                                                 |
| \\      /  F ield         | OpenFOAM: The Open Source CFD Toolbox           |
|  \\    /   O peration     | Version:  2312                                  |
|   \\  /    A nd           | Website:  www.openfoam.com                      |
|    \\/     M anipulation  |                                                 |
\*---------------------------------------------------------------------------*/
FoamFile
{
    version     2.0;
    format      ascii;
    arch        "LSB;label=32;scalar=64";
    class       volScalarField;
    location    "5.65";
    object      alpha.water;
}
// * * * * * * * * * * * * * * * * * * * * * * * * * * * * * * * * * * * * * //

dimensions      [0 0 0 0 0 0 0];

internalField   nonuniform List<scalar> 
2268
(
3.03631e-07
3.03787e-07
2.70554e-07
1.52779e-07
1.60796e-08
1.17501e-09
5.95657e-10
5.10619e-10
3.73575e-10
2.66918e-10
1.97009e-10
1.55691e-10
1.28596e-10
1.11926e-10
1.0479e-10
1.07802e-10
1.25914e-10
1.6425e-10
2.35901e-10
3.7042e-10
8.52112e-10
1.33043e-09
1.37194e-09
2.00335e-07
1.75572e-07
8.14978e-08
1.7687e-08
1.49467e-09
1.35612e-09
1.22253e-09
9.80765e-10
6.78382e-10
4.60809e-10
3.777e-10
3.59963e-10
3.59705e-10
3.45991e-10
3.05854e-10
2.46464e-10
2.45556e-10
2.94711e-10
4.27039e-10
5.8082e-10
9.92918e-10
1.31742e-09
1.31077e-09
2.19329e-08
1.58909e-09
5.72876e-10
1.16711e-09
3.22299e-09
3.70218e-09
5.02252e-09
3.51732e-09
1.78011e-09
9.87552e-10
7.91074e-10
7.97674e-10
9.3944e-10
9.77759e-10
9.49796e-10
8.60913e-10
6.11078e-10
5.29683e-10
5.29322e-10
6.79431e-10
9.65912e-10
1.06934e-09
1.03526e-09
1.4978e-21
4.40737e-10
5.67702e-10
4.51262e-10
5.87673e-10
8.87208e-10
4.99684e-09
3.25025e-09
1.13412e-09
4.69768e-10
4.08992e-10
5.04906e-10
5.97769e-10
6.13942e-10
6.03017e-10
5.42327e-10
4.27513e-10
4.33686e-10
4.68542e-10
5.70077e-10
6.98893e-10
6.87395e-10
6.84354e-10
2.14326e-19
-2.20582e-14
-1.75052e-14
-8.81984e-15
-1.06554e-14
-2.32034e-14
-2.74714e-13
-5.50467e-13
7.5552e-20
-3.06189e-14
-1.5565e-14
-1.65065e-14
-1.53711e-14
-7.6381e-14
-2.25264e-21
-6.07146e-22
6.5575e-12
4.32383e-11
8.04869e-11
1.10623e-10
1.26622e-10
1.08896e-10
9.49235e-11
0.398865
0.397244
0.394287
0.387026
0.370265
0.342423
0.315033
0.283223
0.246761
0.208732
0.171507
0.135166
0.101826
0.0738621
0.0504428
0.0267245
3.95044e-15
6.86581e-24
-3.24612e-11
2.11237e-22
6.66763e-22
1.20095e-21
1.48327e-21
0.996531
0.996786
0.996629
0.995523
0.995327
0.99483
0.986058
0.974223
0.956859
0.93505
0.90891
0.876233
0.833333
0.778828
0.71076
0.627554
0.517992
0.365319
0.283677
0.241472
0.221879
0.211222
0.213912
0.999404
0.999455
0.999455
0.999455
0.999299
0.999569
0.999698
0.999741
0.999737
0.999536
0.999365
0.999583
0.999764
0.99978
0.999557
0.995297
0.968693
0.923603
0.898896
0.893434
0.8839
0.876165
0.885201
0.00847169
0.00702636
0.00324632
0.00201307
0.00396611
0.00471048
0.00654947
0.00696832
0.00729756
0.00726525
0.0075024
0.0074939
0.0046807
0.00362986
0.00368258
0.00366274
0.00283505
0.00231129
0.00240742
1.24519e-18
-4.13023e-06
-4.20021e-06
-3.97251e-06
-1.02746e-18
0.000117492
0.000259664
0.000366026
0.000392768
0.000416527
0.000441518
0.00044505
0.000444101
0.000443116
0.000423025
0.000414087
8.82e-05
8.81166e-05
8.96545e-05
0.359686
0.307647
0.207344
0.103061
0.0398802
0.0162411
0.0101648
0.0178414
0.0455012
0.0693228
0.0704316
0.0661213
0.0662269
0.0540348
0.023338
0.00872458
0.0228001
0.0361007
0.0202952
0.79893
0.924026
0.821159
0.685534
0.552769
0.49118
0.503425
0.586467
0.702913
0.762523
0.77532
0.747002
0.649793
0.613686
0.507035
0.371003
0.40178
0.549688
0.438915
0.954964
0.989734
0.989572
0.980568
0.946478
0.897345
0.91191
0.944395
0.963283
0.987266
0.989606
0.984402
0.934816
0.896088
0.890399
0.65391
0.802582
0.947335
0.769614
0.988093
0.988121
0.98777
0.987873
0.988106
0.987726
0.974226
0.968896
0.984542
0.9896
0.989572
0.989591
0.983241
0.941607
0.868056
0.653435
0.819641
0.951636
0.769013
0.9876
0.989849
0.989757
0.987579
0.988171
0.991034
0.991017
0.985579
0.986884
0.989494
0.978424
0.989466
0.989544
0.935774
0.814912
0.715729
0.913231
0.951923
0.76607
0.974719
0.988162
0.994482
0.987332
0.988139
0.990648
0.991139
0.991144
0.991139
0.983762
0.906941
0.919438
0.901552
0.865177
0.912778
0.888238
0.951948
0.951948
0.819382
0.997841
0.99938
0.999448
0.999288
0.99828
0.994706
0.995787
0.999069
0.99888
0.996499
0.996076
0.998413
0.999648
0.999779
0.99978
0.999765
0.999472
0.999289
0.998687
0.999224
0.999217
0.999186
0.999655
0.969552
0.966216
0.940886
0.897262
0.847557
0.840234
0.86183
0.887416
0.888207
0.875426
0.869489
0.886997
0.927081
0.974389
0.987422
0.980776
0.976143
0.980704
0.97933
0.985562
0.987742
0.979369
0.964283
0.429313
0.374338
0.336224
0.269058
0.16124
0.129724
0.148878
0.187681
0.221002
0.239526
0.232123
0.233761
0.24605
0.247097
0.259893
0.324659
0.406395
0.446268
0.467454
0.475118
0.456444
0.410097
0.349786
0.000449609
7.46921e-23
1.05946e-27
-3.30233e-23
-2.33481e-25
-3.30872e-25
1.18414e-24
-5.00414e-09
2.14187e-22
-1.49632e-20
1.9384e-17
0.000106565
-2.87013e-08
-1.69308e-08
-4.13856e-09
-3.10149e-09
4.1154e-05
0.000721697
0.00135395
0.00150096
0.000859742
5.48985e-05
-3.05252e-09
1.74375e-07
3.67789e-15
2.51562e-08
-3.39296e-15
5.97916e-06
2.21372e-05
1.83082e-05
2.4136e-05
1.79467e-05
3.90429e-24
4.96088e-06
2.67296e-05
3.49871e-05
5.46263e-05
7.89321e-05
7.2831e-05
3.26414e-05
5.77496e-05
0.00028484
0.000656952
0.00047149
0.000107221
4.36263e-05
1.34881e-05
2.55254e-05
4.19874e-05
9.61598e-05
0.000114513
1.82743e-05
1.82846e-05
1.82743e-05
1.82512e-05
0.000109772
0.000189915
0.000190753
0.000115176
8.14745e-05
0.000183006
0.000271546
0.000212401
0.000179361
0.000184519
0.000185569
0.00467835
0.00855394
0.00209687
5.14583e-05
6.68781e-05
7.68935e-05
0.000146848
0.000689141
0.003704
0.00305761
0.00103159
0.00138675
0.00186951
0.00186069
0.000868649
0.000178056
6.72708e-05
8.99114e-05
0.000374343
0.0024933
0.00686364
0.00710206
0.00268139
0.00364985
0.012583
0.0198458
0.000251664
9.96938e-05
0.000981886
0.00374818
0.00457216
0.0045922
0.00459066
0.00265055
0.00166873
0.00150752
0.000947782
0.000537825
0.000134309
6.77323e-05
0.000443878
0.00134287
0.00393745
0.00913968
0.00929162
0.00911991
0.00462039
0.00963882
0.0198458
0.00026929
0.00019005
0.000325212
0.00344577
0.00457619
0.00401958
0.00169818
0.000355206
9.52322e-05
4.17606e-05
2.6227e-06
1.14785e-05
4.90119e-05
0.00032627
0.000456074
0.000385029
0.000183536
6.94878e-05
0.000719742
0.0010512
0.00587173
0.0122967
0.0122782
0.000263666
9.63045e-05
0.000316971
0.00118825
0.00102091
0.000259062
1.05128e-07
1.00829e-07
1.03567e-07
1.06364e-07
6.20124e-07
6.10257e-07
5.1531e-07
4.09656e-06
8.42508e-08
2.46144e-08
2.49801e-08
2.46144e-08
2.49802e-08
2.47204e-08
0.000405695
0.000599862
2.53204e-06
2.22569e-05
1.30463e-08
1.65614e-05
7.06718e-09
6.91149e-09
7.10192e-09
1.74379e-07
9.89613e-08
1.29399e-07
4.43734e-07
1.14664e-06
1.14777e-06
4.68408e-07
4.35683e-08
2.39458e-07
3.27925e-06
6.42495e-06
3.7287e-06
1.58458e-06
2.10345e-06
7.74688e-06
8.10211e-06
1.1524e-05
1.63771e-08
1.3604e-08
1.26005e-08
1.19548e-08
1.83548e-08
6.84529e-08
1.35221e-07
8.8068e-08
3.60664e-07
9.90891e-07
1.20141e-06
1.20389e-06
2.46992e-07
1.13658e-08
4.12002e-07
1.00144e-05
1.13311e-05
7.6853e-06
1.86408e-06
3.08985e-05
3.71404e-05
3.61937e-05
3.31374e-05
7.85245e-08
8.12016e-08
6.81303e-08
1.03047e-08
9.05164e-09
1.75528e-08
3.94783e-08
1.195e-07
3.99944e-07
3.2044e-07
2.83094e-07
6.77031e-08
1.62024e-08
1.13243e-08
1.85804e-06
1.02006e-05
1.02441e-05
2.87793e-06
1.85658e-05
3.86864e-05
3.88761e-05
3.00858e-05
1.11513e-05
1.42705e-07
1.3034e-07
6.69446e-08
8.77376e-09
8.81183e-09
8.83103e-09
4.68378e-08
8.35426e-08
7.41759e-08
1.8019e-08
2.05989e-08
7.84381e-09
1.5227e-08
4.59381e-08
6.73021e-08
9.15898e-07
3.45454e-07
6.55026e-07
2.96721e-05
3.84919e-05
1.78089e-05
5.67957e-07
5.97233e-07
1.33386e-07
9.32708e-08
3.57797e-08
8.67532e-09
8.77159e-09
1.40385e-08
3.12964e-08
2.68207e-08
1.25192e-08
3.99283e-09
2.76937e-09
4.39313e-09
6.31204e-09
6.9144e-09
2.92269e-09
2.3833e-08
8.10299e-09
2.99514e-07
6.03268e-06
4.9034e-07
5.67167e-07
6.97766e-07
1.20235e-06
5.1155e-08
3.26756e-08
1.42799e-08
8.62276e-09
8.88519e-09
9.70732e-09
9.22002e-09
5.34669e-09
2.67417e-09
2.00384e-09
2.2572e-09
2.23644e-09
2.69067e-09
2.81215e-09
3.20545e-09
3.83645e-09
2.77485e-09
6.45414e-08
6.36531e-09
4.95958e-08
1.60696e-06
3.32198e-06
1.19326e-06
1.51985e-08
8.33285e-09
5.81479e-09
6.08802e-09
6.12856e-09
5.16349e-09
3.50295e-09
2.09699e-09
1.52223e-09
1.47648e-09
1.67647e-09
1.98671e-09
2.53801e-09
3.43939e-09
4.72743e-09
5.33302e-09
4.65014e-09
4.08767e-09
6.64684e-09
2.62755e-07
7.46323e-06
1.52534e-05
3.29442e-07
1.22918e-08
4.39729e-09
3.44918e-09
4.01618e-09
3.86937e-09
3.00876e-09
2.08032e-09
1.42445e-09
1.07882e-09
9.84696e-10
1.09797e-09
1.39023e-09
1.90132e-09
2.74855e-09
3.70529e-09
4.30275e-09
3.36667e-09
2.42182e-09
8.19762e-09
2.30195e-07
7.99015e-06
1.51376e-05
9.93278e-06
1.26591e-08
3.25304e-09
2.2401e-09
2.53944e-09
2.2872e-09
1.76411e-09
1.26525e-09
8.89744e-10
6.64257e-10
5.80225e-10
6.25587e-10
7.77114e-10
1.0438e-09
1.44968e-09
1.9568e-09
2.31684e-09
1.97995e-09
2.00466e-09
1.13594e-08
3.60812e-08
3.88973e-07
1.09603e-05
1.40425e-05
1.26118e-08
2.23721e-09
1.3835e-09
1.50827e-09
1.28134e-09
9.63764e-10
6.86912e-10
4.88796e-10
3.66473e-10
3.08024e-10
3.1161e-10
3.58024e-10
4.47725e-10
6.10423e-10
8.23856e-10
1.02875e-09
1.16513e-09
1.44859e-09
9.37847e-09
4.6053e-08
5.73926e-08
1.24323e-07
4.17184e-06
1.21068e-08
1.44313e-09
8.32376e-10
8.55401e-10
7.0357e-10
5.34113e-10
3.92011e-10
2.77631e-10
2.0559e-10
1.64378e-10
1.51078e-10
1.57018e-10
1.88415e-10
2.49511e-10
3.41551e-10
4.62305e-10
5.97814e-10
8.74469e-10
4.94865e-09
4.44583e-08
6.95769e-08
5.56709e-08
1.3784e-07
1.16241e-08
9.09094e-10
5.39137e-10
5.40595e-10
4.82251e-10
4.37797e-10
3.5284e-10
2.26786e-10
1.55727e-10
1.10554e-10
8.27737e-11
7.39454e-11
8.34018e-11
1.07902e-10
1.50134e-10
2.11986e-10
3.03093e-10
4.73358e-10
1.00059e-09
9.42872e-09
6.074e-08
6.89347e-08
3.69086e-08
1.11733e-08
5.70693e-10
4.23993e-10
5.03955e-10
7.01669e-10
7.90332e-10
5.71786e-10
2.86454e-10
1.79484e-10
1.09995e-10
6.69047e-11
4.52152e-11
3.8183e-11
4.26496e-11
5.90257e-11
9.11482e-11
1.51314e-10
2.46815e-10
3.18065e-10
6.46716e-10
7.32896e-09
3.498e-08
2.58361e-08
1.07827e-08
4.44648e-10
4.2503e-10
8.35617e-10
1.24877e-09
1.2979e-09
8.30675e-10
3.36714e-10
2.13246e-10
1.28778e-10
7.13178e-11
3.94124e-11
2.43694e-11
1.99309e-11
2.43358e-11
3.95269e-11
7.32199e-11
1.34647e-10
2.31387e-10
3.20776e-10
4.97952e-10
1.23718e-09
4.88068e-09
1.04862e-08
4.21455e-10
5.72696e-10
1.29383e-09
1.83187e-09
2.08918e-09
1.12037e-09
3.72051e-10
2.51884e-10
1.5174e-10
8.08189e-11
4.26232e-11
2.2069e-11
1.30339e-11
1.10928e-11
1.58896e-11
2.95693e-11
5.91987e-11
1.16052e-10
2.1034e-10
3.60755e-10
6.62455e-10
2.3165e-09
1.02527e-08
4.44107e-10
9.08051e-10
1.70336e-09
2.80588e-09
4.43576e-09
1.26364e-09
3.92098e-10
2.90543e-10
1.7274e-10
8.94567e-11
4.67177e-11
2.45774e-11
1.18944e-11
6.86003e-12
6.59545e-12
1.06723e-11
2.09173e-11
4.21476e-11
8.69775e-11
1.94049e-10
4.71448e-10
1.00264e-09
1.00809e-08
6.28568e-10
1.32954e-09
2.82775e-09
8.4545e-09
1.35448e-08
7.94085e-10
4.12988e-10
3.43215e-10
1.8677e-10
9.24089e-11
4.88204e-11
2.61851e-11
1.32744e-11
6.06103e-12
3.5637e-12
3.97977e-12
7.06507e-12
1.38846e-11
2.81366e-11
6.05155e-11
1.39533e-10
3.19899e-10
1.0014e-08
9.57344e-10
3.11938e-09
1.3172e-08
4.58068e-08
2.76433e-08
4.37067e-10
4.37258e-10
3.78717e-10
1.84469e-10
8.85625e-11
4.74894e-11
2.67627e-11
1.41499e-11
6.75373e-12
2.85584e-12
1.77195e-12
2.35766e-12
4.25278e-12
8.35956e-12
1.76537e-11
3.7414e-11
7.45657e-11
1.01128e-08
3.46098e-09
2.26237e-08
1.12846e-07
2.51969e-07
1.66743e-08
4.34605e-10
4.98096e-10
3.70179e-10
1.6408e-10
7.71357e-11
4.28365e-11
2.54093e-11
1.41641e-11
7.11173e-12
3.12174e-12
1.14869e-12
8.77769e-13
1.35272e-12
2.508e-12
4.52211e-12
9.0757e-12
1.73438e-11
1.04819e-08
1.30995e-08
1.24599e-07
6.37732e-07
4.17603e-07
7.04131e-10
4.4795e-10
5.64971e-10
3.37463e-10
1.33951e-10
6.10358e-11
3.48337e-11
2.2133e-11
1.3304e-11
7.06155e-12
3.26769e-12
1.16412e-12
4.28126e-13
4.55426e-13
7.65775e-13
1.39105e-12
2.45277e-12
4.07586e-12
1.24304e-08
4.51285e-08
2.67661e-07
6.69894e-07
3.51799e-07
4.52697e-10
5.83459e-10
6.0917e-10
2.89564e-10
1.01168e-10
4.39667e-11
2.59323e-11
1.75772e-11
1.1408e-11
6.58457e-12
3.18792e-12
1.32687e-12
3.02778e-13
1.71845e-13
2.42571e-13
4.11326e-13
6.93361e-13
1.09178e-12
1.42875e-08
7.1724e-08
3.65557e-07
6.69621e-07
6.67559e-08
4.53199e-10
8.64352e-10
5.79431e-10
2.14013e-10
7.18559e-11
3.00483e-11
1.77562e-11
1.25449e-11
8.77254e-12
5.56603e-12
2.96846e-12
1.35715e-12
3.42949e-13
8.39083e-14
7.86121e-14
1.27717e-13
2.02915e-13
2.8996e-13
1.66039e-08
1.12062e-07
6.06441e-07
3.94855e-07
1.49738e-09
6.74337e-10
1.12593e-09
4.8675e-10
1.40538e-10
4.99966e-11
1.94617e-11
1.16163e-11
8.33058e-12
5.97938e-12
4.11978e-12
2.51252e-12
1.26798e-12
3.99393e-13
6.30313e-14
2.911e-14
3.36437e-14
5.50484e-14
7.61465e-14
1.913e-08
1.53845e-07
6.35107e-07
3.06453e-07
5.20831e-10
1.04973e-09
1.52863e-09
4.75911e-10
1.25175e-10
3.49307e-11
1.20181e-11
6.87586e-12
4.95712e-12
3.63394e-12
2.70518e-12
1.83025e-12
1.04183e-12
4.36527e-13
7.09774e-14
1.25447e-14
1.02986e-14
1.5763e-14
1.91926e-14
2.42477e-08
2.14817e-07
6.35099e-07
2.81353e-07
5.17736e-10
1.75759e-09
2.0393e-09
5.35135e-10
1.24462e-10
2.55515e-11
7.1677e-12
4.03507e-12
2.73245e-12
1.99835e-12
1.51446e-12
1.14153e-12
7.52241e-13
3.89106e-13
8.06176e-14
8.99159e-15
3.19529e-15
4.02244e-15
5.12272e-15
2.59554e-08
2.56181e-07
6.35107e-07
1.55908e-07
5.22168e-10
3.27412e-09
2.50547e-09
6.06934e-10
1.28706e-10
2.05914e-11
4.18997e-12
2.18958e-12
1.46086e-12
9.901e-13
7.33539e-13
5.93993e-13
4.56768e-13
2.89355e-13
8.36388e-14
1.01885e-14
1.48173e-15
1.19621e-15
1.43529e-15
2.57001e-08
2.39337e-07
5.32059e-07
2.86441e-08
3.68414e-09
8.797e-09
2.82485e-09
6.30606e-10
1.25681e-10
1.69083e-11
2.34143e-12
1.09224e-12
7.24457e-13
4.48715e-13
3.0508e-13
2.47445e-13
2.1627e-13
1.70435e-13
7.25243e-14
1.18043e-14
1.13157e-15
3.42718e-16
3.92997e-16
2.29568e-08
1.62073e-07
3.00038e-07
1.2766e-08
6.06421e-09
1.12112e-08
2.91282e-09
5.6738e-10
1.0319e-10
1.27232e-11
1.22308e-12
5.14821e-13
3.3332e-13
1.90567e-13
1.12276e-13
8.33051e-14
7.80327e-14
7.42587e-14
4.65648e-14
1.14809e-14
1.19766e-15
1.26355e-16
9.65834e-17
2.19616e-08
1.41484e-07
3.19509e-07
5.7914e-09
1.36996e-08
1.10269e-08
2.51128e-09
4.43327e-10
6.83073e-11
7.52803e-12
5.64938e-13
2.00398e-13
1.34205e-13
7.36779e-14
3.71067e-14
2.25362e-14
2.03114e-14
2.29251e-14
2.18472e-14
8.72593e-15
1.25135e-15
7.62935e-17
2.34817e-17
2.19555e-08
1.21644e-07
2.03597e-07
2.89819e-09
1.44883e-08
6.48541e-09
1.32739e-09
2.60333e-10
2.95152e-11
2.88406e-12
1.82581e-13
5.9482e-14
4.24879e-14
2.38589e-14
1.09637e-14
5.13815e-15
3.79756e-15
4.79267e-15
6.4712e-15
4.96734e-15
9.52177e-16
7.39503e-17
7.14529e-18
2.18008e-08
5.29961e-08
2.24786e-08
4.75969e-09
1.2698e-08
2.42961e-09
5.32329e-10
1.02748e-10
9.20188e-12
6.58305e-13
3.25351e-14
1.16355e-14
9.35216e-15
5.63895e-15
2.55675e-15
9.68072e-16
5.04784e-16
6.92013e-16
1.31558e-15
1.83628e-15
6.13004e-16
6.82948e-17
4.92285e-18
3.43728e-08
1.18231e-08
3.23722e-09
1.57478e-08
2.05016e-09
3.38731e-10
8.8522e-11
1.49894e-11
9.31016e-13
3.57176e-14
1.40684e-15
1.09515e-15
1.02923e-15
6.9628e-16
3.2999e-16
1.14242e-16
4.24801e-17
6.01543e-17
1.90443e-16
4.45292e-16
3.3562e-16
5.31085e-17
3.713e-18
0.999776
0.999758
0.98526
0.945525
0.966099
0.990329
0.989429
0.97736
0.283401
0.402175
0.696832
0.830442
2.634e-19
0.000796045
0.0479285
0.13755
3.94719e-05
1.18981e-09
1.02638e-14
-2.18764e-19
0.000240934
-5.23898e-11
-1.35198e-10
8.42938e-15
0.0198219
0.00908079
9.10724e-15
9.18103e-06
0.0198458
0.0198458
0.0188569
0.0152065
0.00986974
0.0102698
0.0134965
0.0154026
2.4495e-06
2.48532e-06
2.67074e-06
3.04981e-06
9.81301e-06
2.00482e-05
3.75823e-05
3.90585e-05
4.05244e-05
4.04431e-05
4.05204e-05
4.0325e-05
3.22972e-06
2.19561e-06
1.51167e-06
1.82681e-06
1.11807e-06
1.43668e-06
1.70263e-06
2.34119e-06
2.08807e-06
2.00852e-06
1.47558e-06
5.38584e-07
2.32064e-07
2.31946e-07
2.61032e-07
6.69308e-07
2.31863e-07
2.31951e-07
2.58139e-07
4.31064e-06
2.3183e-07
2.40909e-07
3.64466e-06
7.54663e-06
1.1956e-05
8.93731e-06
6.81817e-06
6.6321e-06
1.93172e-05
1.9322e-05
1.9298e-05
8.52121e-06
5.6972e-08
8.99301e-08
3.47597e-07
2.09116e-06
5.86633e-08
7.0491e-08
3.44122e-08
1.23108e-09
6.59934e-09
4.91364e-08
9.77939e-08
9.77859e-08
4.23317e-09
6.72177e-09
2.97131e-08
9.04414e-08
3.34292e-09
3.20779e-09
1.46721e-08
3.18403e-08
1.88807e-09
2.77482e-09
3.64306e-09
3.05401e-09
5.0447e-10
6.26407e-10
6.79171e-10
6.82372e-10
1.25526e-10
1.39102e-10
1.62426e-10
1.71895e-10
2.61432e-11
3.02405e-11
3.38847e-11
3.67028e-11
6.0811e-12
6.8642e-12
7.90983e-12
8.73861e-12
1.53499e-12
1.71587e-12
1.93804e-12
2.16677e-12
3.61546e-13
3.95424e-13
4.49926e-13
4.87927e-13
8.5664e-14
9.10085e-14
9.60287e-14
1.031e-13
2.18176e-14
2.06903e-14
2.16457e-14
2.18469e-14
5.16865e-15
5.06288e-15
5.00385e-15
5.13869e-15
1.39863e-15
1.28128e-15
1.31879e-15
1.32873e-15
3.74609e-16
3.51199e-16
3.47473e-16
3.79174e-16
9.6652e-17
8.28633e-17
8.58537e-17
9.15711e-17
2.00686e-17
1.902e-17
1.86505e-17
1.96494e-17
4.27064e-18
3.57629e-18
3.45467e-18
3.4694e-18
7.58049e-19
6.34251e-19
6.04878e-19
5.76021e-19
1.53621e-19
9.58016e-20
8.77388e-20
7.17314e-20
0.942839
0.992067
0.994556
0.984066
0.96361
0.991137
0.991143
0.989585
0.982823
0.924431
0.739494
0.819235
0.854306
0.899324
0.951937
0.951865
0.951942
0.951948
0.866752
0.972276
0.992879
0.993336
0.913424
0.89905
0.983958
0.991137
0.975203
0.826561
0.391208
0.334892
0.913817
0.945252
0.945229
0.945312
0.951722
0.950928
0.941023
0.940961
0.856932
0.784496
0.847714
0.821581
0.83766
0.933174
0.927465
0.508598
0.0682085
0.00176182
0.289457
0.747981
0.902569
0.917831
0.913028
0.890073
0.899317
0.923334
0.927658
0.181938
0.0843308
0.188165
0.271199
0.292802
0.400477
0.274797
0.000596376
-5.87965e-11
7.94446e-36
-2.03702e-20
0.00893869
0.183259
0.300427
0.272001
0.187491
0.254112
0.424615
0.55571
-1.83746e-19
-6.12569e-20
7.33193e-19
0.000991837
0.0012632
0.00290094
0.00727427
-9.64859e-15
3.69697e-12
1.24762e-25
4.66549e-23
-1.72844e-10
-3.67729e-23
5.32084e-22
1.29559e-22
1.39542e-21
4.1832e-09
4.71199e-09
7.98421e-09
-4.47827e-21
3.51413e-21
0.00683237
0.0222016
0.00623922
1.08271e-20
-1.0214e-20
-1.95236e-19
2.64698e-25
4.06355e-06
2.01462e-05
-1.28686e-08
4.47039e-05
0.000181384
0.000169406
0.000171567
0.000257282
0.000282215
0.000613628
7.82957e-05
0.000112994
0.00131335
0.0163388
0.0342224
0.00450331
0.000648768
0.000506796
0.000452611
0.000199669
0.000144479
0.000177604
0.000308119
0.000480675
0.000732442
0.000904789
0.00144673
0.00220623
0.00255518
0.013282
0.0056041
0.00118798
0.00607068
0.0363989
0.0352618
0.0084724
0.00143778
0.00111811
0.000664915
0.000442746
0.000443031
0.000621318
0.000558643
0.00146976
0.00255516
0.00255592
0.00255516
0.0025559
0.013939
0.0137592
0.0074728
0.00157172
0.0249463
0.0375104
0.0374676
0.0235578
0.0163558
0.0186636
0.0173729
0.00592914
0.000177952
0.000222763
0.00172365
0.00222211
0.00168995
0.00110939
0.000882961
0.000214125
0.00165672
0.00261747
0.00137167
0.00322894
0.0233706
0.0298856
0.023512
0.0223958
0.0220862
0.018142
0.00117973
0.000169436
0.000158845
0.000199889
1.89999e-06
2.15831e-08
4.13404e-07
4.03303e-07
1.18238e-05
1.15823e-05
2.85528e-07
0.000301106
6.97233e-05
0.000230132
0.00189898
0.0033327
0.0073146
0.0107002
0.00712671
0.00232319
0.000478877
3.43658e-05
1.12207e-05
1.85939e-08
1.81622e-08
2.02029e-07
1.63947e-06
1.19703e-05
1.6048e-06
7.65892e-08
2.16366e-09
2.16e-09
-5.82727e-10
-8.57082e-16
8.57288e-16
-1.50312e-20
-1.69826e-20
1.74605e-08
0.000204895
0.000224883
0.000128454
2.67432e-05
1.92262e-08
2.3811e-07
2.22051e-07
4.14671e-06
1.2075e-06
1.25054e-08
2.16365e-09
2.12672e-09
6.35716e-07
7.1022e-07
1.16996e-09
2.44346e-29
-9.41699e-13
-1.02473e-13
-1.15336e-26
-2.21899e-09
-7.9483e-09
7.10412e-07
3.102e-06
2.36023e-06
5.9751e-07
7.13287e-07
5.02101e-06
2.6707e-06
2.67263e-06
1.29346e-06
2.09999e-07
3.86437e-07
1.35282e-06
6.15182e-06
7.86654e-06
4.62753e-06
1.65022e-06
6.49431e-06
1.0022e-05
9.99297e-06
8.94366e-06
5.42353e-07
4.61295e-08
4.37065e-08
7.5746e-06
2.06306e-05
6.35752e-07
1.03994e-06
2.5506e-06
4.93882e-06
4.82941e-06
7.7072e-06
7.99577e-06
7.99973e-06
7.99661e-06
7.46834e-06
4.36962e-06
3.37259e-06
1.87711e-06
1.30298e-07
3.79673e-08
3.76976e-08
6.93936e-07
1.75623e-05
2.08018e-05
7.253e-07
6.75003e-07
1.33746e-06
3.44639e-06
2.18419e-06
1.76925e-06
1.29984e-06
1.3931e-06
1.49749e-06
7.2173e-07
3.20012e-07
1.09556e-06
2.24333e-06
9.35306e-07
7.36546e-08
2.35804e-07
8.15637e-06
2.077e-05
2.06529e-05
1.72883e-05
2.8858e-05
1.93187e-05
3.51894e-06
5.87024e-07
2.94678e-07
1.54607e-07
5.62057e-08
5.80194e-08
6.94748e-08
6.13766e-08
6.66362e-06
9.45058e-06
8.39103e-06
4.59676e-06
1.50277e-05
2.29529e-05
1.72544e-05
1.11289e-06
2.3093e-05
4.28044e-05
4.27989e-05
4.24572e-05
3.14765e-05
1.27269e-05
4.7097e-06
2.19531e-06
1.68936e-07
5.86915e-08
1.98087e-07
4.22472e-06
2.0531e-05
4.02257e-05
4.02251e-05
4.02257e-05
2.29076e-05
2.5379e-07
4.85392e-07
7.51374e-06
3.65592e-05
4.27952e-05
4.27899e-05
4.27863e-05
4.27579e-05
3.92635e-05
6.0673e-06
3.7903e-07
6.5218e-07
5.87379e-07
2.7812e-06
1.51493e-05
2.31231e-05
2.13483e-05
8.04575e-06
1.05137e-07
1.0468e-07
4.68039e-07
4.12066e-06
8.05017e-06
2.76722e-05
4.27862e-05
3.78755e-05
8.83592e-06
7.23365e-06
1.48968e-05
1.48845e-05
4.30928e-06
2.68307e-06
4.19272e-06
5.5607e-06
4.44996e-06
4.1498e-06
1.04868e-07
1.05493e-07
1.04653e-07
3.41424e-07
2.67257e-06
1.2847e-09
2.07579e-06
1.40278e-05
9.35467e-06
4.6017e-06
2.5654e-06
2.93802e-07
2.15464e-06
3.45213e-06
1.81626e-06
2.9326e-06
5.05198e-06
4.30267e-06
4.05355e-07
2.31078e-07
2.613e-07
1.24485e-07
7.97847e-08
1.20224e-09
1.30105e-09
8.12661e-10
8.133e-10
8.08547e-10
8.09276e-10
8.04576e-10
8.054e-10
8.04576e-10
2.21373e-07
2.48344e-07
1.31845e-07
3.95439e-07
4.91413e-07
3.36578e-07
4.25632e-07
4.33458e-07
2.7973e-07
7.83332e-08
7.2808e-08
2.49975e-08
9.75873e-09
7.42788e-09
7.92759e-09
4.16944e-09
1.56466e-09
1.15375e-09
1.03045e-09
1.03161e-09
1.70459e-08
1.76238e-08
4.88568e-09
2.57701e-09
2.58756e-09
2.82316e-07
4.3367e-07
2.798e-07
7.83305e-08
7.75296e-08
3.6502e-08
1.48861e-08
8.83515e-09
9.1571e-09
6.76271e-09
3.87374e-09
2.48023e-09
1.92011e-09
1.91859e-09
2.22331e-09
3.9625e-09
3.8131e-09
2.65627e-09
2.61728e-09
1.36357e-08
3.9478e-07
2.43415e-07
7.8327e-08
2.27414e-08
8.4992e-09
5.69411e-09
5.68154e-09
5.33028e-09
3.67127e-09
2.46109e-09
1.99107e-09
2.18434e-09
2.87404e-09
3.59356e-09
4.70737e-09
5.57391e-09
6.29691e-09
4.08806e-09
3.97833e-09
1.19606e-07
2.00639e-07
8.61495e-08
2.11142e-09
2.12302e-09
2.49281e-09
2.18244e-09
1.78489e-09
1.35753e-09
1.16908e-09
1.28524e-09
1.67239e-09
2.40037e-09
3.88993e-09
6.18815e-09
8.87053e-09
1.1276e-08
7.77269e-09
4.1746e-09
4.20831e-08
1.90935e-07
1.17837e-07
6.90025e-10
7.00179e-10
6.63091e-10
5.74704e-10
5.17688e-10
5.12548e-10
5.81059e-10
7.63316e-10
1.12267e-09
1.79083e-09
2.94286e-09
5.22701e-09
8.53492e-09
1.1061e-08
7.69149e-09
2.66576e-08
1.09987e-07
2.01556e-07
2.01175e-07
1.75251e-10
1.76302e-10
1.67337e-10
1.67714e-10
1.81061e-10
2.23879e-10
3.28034e-10
5.21081e-10
8.79658e-10
1.48258e-09
2.51684e-09
4.29535e-09
6.87336e-09
8.3595e-09
7.912e-09
7.85528e-08
1.69529e-07
1.77778e-07
2.01292e-07
3.85415e-11
4.22909e-11
4.70043e-11
5.50386e-11
7.47188e-11
1.07225e-10
1.63374e-10
3.11075e-10
6.8086e-10
1.4479e-09
2.69107e-09
4.18319e-09
5.7174e-09
7.00458e-09
8.35168e-09
9.1733e-08
1.70499e-07
1.1513e-07
2.01022e-07
9.5948e-12
1.12564e-11
1.33654e-11
1.67613e-11
1.47665e-11
2.0356e-11
4.3623e-11
1.30511e-10
4.2004e-10
1.25201e-09
3.00446e-09
5.7559e-09
8.03383e-09
7.45557e-09
8.9561e-09
5.69431e-08
1.19617e-07
7.80971e-08
1.95494e-07
2.33393e-12
2.78542e-12
3.0894e-12
2.37539e-12
2.54877e-12
4.5509e-12
1.42752e-11
5.51353e-11
2.21075e-10
7.82213e-10
3.0924e-09
6.92487e-09
1.18109e-08
1.20662e-08
1.14242e-08
7.42246e-09
2.8649e-08
2.16912e-08
1.06171e-07
5.22991e-13
5.99009e-13
6.13014e-13
4.62677e-13
6.69529e-13
1.7355e-12
6.04713e-12
2.33523e-11
9.1093e-11
3.1278e-10
3.26507e-09
8.70009e-09
2.19145e-08
2.55204e-08
1.08137e-08
4.48707e-09
4.5457e-09
1.68418e-08
7.24346e-08
1.07006e-13
1.06668e-13
1.1589e-13
1.59753e-13
3.02503e-13
9.86539e-13
3.2574e-12
1.13361e-11
4.07203e-11
1.61603e-10
2.87564e-09
1.21745e-08
2.90655e-08
4.16289e-08
1.67799e-08
4.48745e-09
4.48556e-09
2.05652e-08
1.11996e-07
2.23682e-14
2.38099e-14
3.39521e-14
7.36316e-14
2.13456e-13
6.39466e-13
2.04567e-12
7.34348e-12
3.20778e-11
1.83042e-10
2.90064e-09
1.19456e-08
2.91188e-08
4.7087e-08
4.50692e-08
4.48281e-09
4.48451e-09
1.92031e-08
1.17078e-07
5.1123e-15
7.0073e-15
1.45445e-14
4.30575e-14
1.38418e-13
4.77982e-13
1.50567e-12
5.15803e-12
2.27355e-11
1.37565e-10
8.89146e-10
6.32302e-09
1.9124e-08
4.38399e-08
4.77818e-08
3.41859e-08
7.20873e-09
1.48946e-08
1.06969e-07
1.56797e-15
2.60841e-15
7.2425e-15
2.50947e-14
9.2717e-14
3.37349e-13
1.13221e-12
3.43815e-12
1.11642e-11
3.94985e-11
1.26876e-10
1.23389e-09
8.68664e-09
2.28509e-08
4.78122e-08
4.78032e-08
3.0617e-08
4.29327e-08
7.48774e-08
4.32198e-16
8.9608e-16
3.04151e-15
1.19818e-14
4.91204e-14
1.93069e-13
7.00669e-13
2.22572e-12
7.4371e-12
3.20224e-11
1.54445e-10
6.88113e-10
1.71761e-09
9.54114e-09
3.17981e-08
4.88468e-08
4.85922e-08
1.14939e-07
8.67534e-08
1.17105e-16
2.57234e-16
9.42726e-16
4.21903e-15
1.93399e-14
8.63505e-14
3.58711e-13
1.32213e-12
4.18271e-12
1.65229e-11
8.59656e-11
4.71369e-10
1.27275e-09
2.22343e-09
8.20894e-09
2.8197e-08
5.20329e-08
1.43179e-07
2.78008e-07
2.25935e-17
4.89412e-17
1.87118e-16
9.32773e-16
4.95292e-15
2.544e-14
1.23038e-13
5.39397e-13
2.15064e-12
7.39837e-12
2.87939e-11
1.59337e-10
9.10787e-10
1.8345e-09
3.03877e-09
5.8275e-09
4.39311e-08
1.02917e-07
3.77958e-07
3.8248e-18
5.70882e-18
1.99402e-17
1.10203e-16
7.25593e-16
5.3387e-15
3.29895e-14
1.77646e-13
8.17987e-13
3.29224e-12
1.14681e-11
4.96615e-11
2.82257e-10
1.44391e-09
2.68946e-09
3.26422e-09
1.73803e-08
7.75216e-08
3.77996e-07
5.08856e-19
5.35764e-19
1.25464e-18
6.75448e-18
5.49382e-17
4.82661e-16
4.24266e-15
3.22186e-14
2.03141e-13
1.09868e-12
4.81066e-12
1.64733e-11
7.269e-11
4.04219e-10
1.79519e-09
3.04328e-09
7.0623e-09
5.36674e-08
3.76794e-07
5.50874e-20
4.29081e-20
5.45288e-20
1.7445e-19
1.39362e-18
1.54374e-17
1.95632e-16
2.17821e-15
2.00637e-14
1.43505e-13
8.00178e-13
3.42659e-12
1.16436e-11
4.3528e-11
1.85793e-10
1.2808e-09
3.60438e-09
3.81802e-08
2.35127e-07
)
;

boundaryField
{
    leftWall
    {
        type            zeroGradient;
    }
    rightWall
    {
        type            zeroGradient;
    }
    lowerWall
    {
        type            zeroGradient;
    }
    atmosphere
    {
        type            inletOutlet;
        inletValue      uniform 0;
        value           nonuniform List<scalar> 
46
(
3.43728e-08
1.18231e-08
3.23722e-09
1.57478e-08
2.05016e-09
0
0
0
0
0
0
0
0
0
0
0
4.24801e-17
6.01543e-17
1.90443e-16
4.45292e-16
3.3562e-16
5.31085e-17
0
0
0
0
0
0
0
0
0
0
0
0
0
0
0
0
0
0
0
0
1.2808e-09
3.60438e-09
3.81802e-08
2.35127e-07
)
;
    }
    defaultFaces
    {
        type            empty;
    }
}


// ************************************************************************* //
