/*--------------------------------*- C++ -*----------------------------------*\
| =========                 |                                                 |
| \\      /  F ield         | OpenFOAM: The Open Source CFD Toolbox           |
|  \\    /   O peration     | Version:  2312                                  |
|   \\  /    A nd           | Website:  www.openfoam.com                      |
|    \\/     M anipulation  |                                                 |
\*---------------------------------------------------------------------------*/
FoamFile
{
    version     2.0;
    format      ascii;
    arch        "LSB;label=32;scalar=64";
    class       volScalarField;
    location    "5.65";
    object      alpha.air;
}
// * * * * * * * * * * * * * * * * * * * * * * * * * * * * * * * * * * * * * //

dimensions      [0 0 0 0 0 0 0];

internalField   nonuniform List<scalar> 
2268
(
1.11187e-09
1.05213e-09
1.0653e-09
1.15635e-09
1.2997e-09
1.26593e-09
9.70729e-10
5.75989e-10
3.24125e-10
2.33514e-10
2.01045e-10
1.96205e-10
1.90786e-10
1.94659e-10
1.95823e-10
2.17761e-10
2.61536e-10
2.9558e-10
2.78197e-10
1.41934e-10
1.58393e-08
6.20562e-07
6.22796e-07
1.39872e-09
1.29693e-09
1.45378e-09
2.24925e-09
3.56349e-09
5.05983e-09
4.15252e-09
3.25114e-09
2.12713e-09
1.45151e-09
1.49764e-09
1.20833e-09
9.65209e-10
9.81807e-10
7.33889e-10
2.82084e-10
4.27064e-10
7.18987e-10
5.85387e-10
1.37378e-10
1.49856e-07
6.22819e-07
6.22826e-07
2.39311e-09
2.04238e-09
2.00437e-09
2.24355e-09
6.7368e-09
1.81614e-08
1.79268e-08
1.11017e-08
5.01801e-09
5.04453e-09
9.31258e-09
7.81926e-09
3.99159e-09
1.22323e-08
3.77805e-08
2.13093e-08
2.5138e-09
1.78008e-09
3.13291e-10
4.19798e-09
8.98556e-08
2.08334e-07
1.25991e-07
1.64824e-08
1.52869e-08
1.33356e-08
1.65659e-08
2.18176e-08
3.63952e-08
3.75994e-08
3.47376e-08
5.04321e-09
5.78681e-09
6.93329e-09
6.96949e-09
5.16023e-09
7.02742e-09
7.50461e-07
8.34781e-07
2.24566e-07
2.8163e-08
9.12716e-10
2.27973e-09
4.41979e-09
6.21917e-11
5.00652e-09
0.000101627
0.000135215
0.000187505
0.000376517
0.000429393
0.000363271
0.000186663
8.88017e-05
2.69182e-05
5.51276e-06
1.46069e-05
2.86563e-05
2.46752e-05
7.68302e-06
1.07291e-06
1.47368e-05
4.71228e-06
2.25645e-09
-4.0505e-12
2.85504e-19
6.15467e-17
8.6909e-20
7.54257e-18
0.00110233
0.000958978
0.00105806
0.00132149
0.00132149
0.00132149
0.00130456
0.000974278
0.00049112
8.42823e-05
7.21266e-05
0.000127876
0.000130829
8.2112e-05
5.03102e-06
8.85849e-08
6.2075e-05
0.000618741
0.0021134
0.00323385
0.00318914
0.00395891
0.00672556
0.00113124
0.000832499
0.000786315
0.00121494
0.0013214
0.00119541
0.00117337
0.000922829
0.000582919
0.000203884
0.000173654
0.000143998
0.000130885
9.80444e-05
1.73987e-05
7.16117e-08
7.82962e-08
0.00327244
0.00902587
0.00998204
0.00998123
0.00998179
0.00998131
0.00059541
0.000537297
0.000515978
0.000538174
0.000701065
0.000430503
0.000301789
0.000172723
0.000175826
0.000428507
0.000606861
0.000265497
5.83884e-05
3.66042e-05
2.37384e-05
4.31378e-05
0.000552226
0.00204091
0.00345847
0.00401662
0.00566841
0.00857225
0.00997823
0.000267801
0.00031966
0.00420183
0.00621966
0.00621245
0.00566223
0.00254483
0.00196638
0.00196597
0.00193639
0.00167376
0.00167365
0.00167372
0.00167357
0.0017273
0.00189621
0.00269236
0.00309584
0.00308304
0.00076531
0.000570945
0.000589339
0.000602123
0.000836754
0.00215064
0.0033325
0.00355549
0.0028545
0.0017556
0.00167357
0.00167376
0.00167354
0.0016735
0.00167318
0.00182184
0.00218791
0.00247773
0.0028716
0.0101458
0.00964289
0.0121904
0.013529
0.012335
0.010882
0.0113656
0.0140141
0.0152371
0.0132663
0.00697549
0.0033872
0.00277687
0.0018208
0.00339343
0.0109661
0.0174761
0.0131377
0.00764157
0.0122091
0.0123358
0.0226752
0.0290523
0.0327914
0.0347646
0.0397988
0.0457832
0.0457895
0.0456385
0.0343541
0.0250962
0.0450302
0.0271337
0.0218601
0.0542817
0.0539038
0.0463848
0.0418735
0.00993206
0.00482888
0.00551186
0.00759727
0.0166066
0.0323419
0.0374553
0.0438967
0.0351673
0.011192
0.00871463
0.0140509
0.0577504
0.0851005
0.0909455
0.0636342
0.0519989
0.0298421
0.0436732
0.00465834
0.00336807
0.00359689
0.00374552
0.00563409
0.00978322
0.022857
0.0273822
0.0119427
0.00581458
0.00564261
0.0058238
0.00444941
0.0285228
0.0973988
0.0975098
0.0570789
0.0235032
0.0342901
0.00799786
0.00353238
0.00548656
0.00542664
0.00304801
0.00496096
0.00611848
0.0106858
0.00911393
0.00580362
0.0125018
0.00501573
0.00433539
0.0043218
0.0505014
0.0975602
0.0332596
0.0235465
0.0501334
0.00863761
0.00234117
0.00358411
0.00753496
0.00303
0.0030045
0.0056511
0.00580188
0.00439118
0.0101083
0.0674103
0.0182113
0.00684359
0.0124327
0.0218214
0.0831276
0.0252723
0.023841
0.0523272
0.00215875
0.000619176
0.000515665
0.00051571
0.00139312
0.0051349
0.00419724
0.000887881
0.00109661
0.00350057
0.00392367
0.00156529
0.000335633
0.000204016
8.05667e-05
4.3778e-05
4.39764e-05
4.46177e-05
4.52578e-05
4.58631e-05
4.64109e-05
4.70459e-05
4.76803e-05
0.0271894
0.014263
0.00773517
0.00337143
0.00137388
0.0125099
0.0322872
0.0427752
0.0522497
0.0653988
0.0677066
0.054979
0.0340893
0.0175235
0.0121484
0.0178648
0.0222237
0.0182658
0.0198519
0.0137416
0.0116206
0.0192321
0.0311423
0.0353597
0.0353623
0.0353597
0.0272653
0.00146076
0.000745444
0.00901522
0.0616741
0.0793199
0.0793199
0.0793198
0.0793026
0.0573944
0.0339191
0.0452964
0.0559053
0.0559547
0.0476707
0.0210368
0.017912
0.0190099
0.0343182
0.047614
0.0198751
0.0089564
0.0151566
0.0266241
0.017732
0.00074863
0.00129148
0.0143213
0.0793349
0.0793199
0.061792
8.22789e-05
0.000385264
0.00515724
0.0206098
0.0281119
0.018645
0.0069999
0.00388923
0.00338865
0.00319535
0.00469563
0.0142952
0.000256028
0.000269224
0.00104034
0.00465967
0.00218321
0.000300861
0.0175245
0.0734382
0.0793344
0.0544776
0.000215233
7.97884e-05
7.6592e-05
6.97086e-05
5.35205e-05
9.32374e-05
0.000122726
7.76025e-05
6.59244e-13
-4.24205e-21
1.07522e-05
0.000123232
0.000217098
0.000242133
0.000242772
0.00025704
0.000226426
0.000208216
0.00030505
0.00298501
0.0208146
0.0179643
5.87288e-05
5.4251e-05
4.88679e-05
4.8887e-05
6.11914e-05
3.09767e-07
6.36566e-23
1.22678e-22
4.96704e-06
1.91018e-09
-6.06318e-14
6.70822e-17
-6.70822e-17
3.2093e-05
0.000145533
0.000153046
0.000185284
0.000175069
0.000163434
0.000164935
0.0196645
0.0800319
0.138259
0.193233
0.230363
0.248511
0.242516
0.208684
0.161028
0.112392
0.0706471
0.0409386
0.00952687
-9.5992e-10
-1.77848e-14
3.09492e-30
4.30493e-12
0.000669631
0.00241098
0.0484496
0.156994
0.301386
0.482982
0.694454
0.814674
0.890292
0.936084
0.958652
0.96436
0.957627
0.942788
0.919606
0.886612
0.842169
0.784244
0.701491
0.591062
0.488074
0.405547
0.341856
0.456145
0.546394
0.67545
0.807765
0.917358
0.984783
0.99808
0.999616
0.999887
0.99994
0.999978
0.999969
0.999944
0.999673
0.999544
0.999615
0.999798
0.999893
0.999213
0.998464
0.986094
0.963689
0.946848
0.999337
0.999501
0.999498
0.998736
0.998907
0.99971
1
1
1
1
0.999999
0.999997
0.999994
0.999983
0.999983
0.999981
0.999981
0.999994
0.999998
0.999998
0.99958
0.999382
0.999979
0.99992
0.999972
0.999948
1
1
1
1
1
1
0.999999
0.999999
0.999999
0.999977
0.999972
0.999972
0.999968
0.999967
0.999972
0.999995
0.999995
0.999985
0.999984
0.999984
1
1
1
1
1
1
1
1
0.999999
0.999999
0.999999
0.999995
0.999981
0.999982
0.999987
0.999976
0.999968
0.999979
0.999995
0.999949
0.999941
0.999942
0.999953
1
1
1
1
1
1
1
1
1
0.999999
0.999997
0.999999
1
1
0.999998
0.99999
0.999989
0.999993
0.999965
0.99994
0.999944
0.999964
0.999984
1
1
1
1
1
1
1
1
1
1
1
1
1
1
1
0.999999
0.999999
0.999993
0.99995
0.999947
0.999978
0.999997
0.999999
1
1
1
1
1
1
1
1
1
1
1
1
1
1
1
1
1
0.999994
0.999981
0.999999
0.999999
0.999999
0.999999
1
1
1
1
1
1
1
1
1
1
1
1
1
1
1
1
1
0.999999
1
1
0.999997
0.999996
0.999998
1
1
1
1
1
1
1
1
1
1
1
1
1
1
1
1
1
1
1
1
0.999988
0.999972
0.999998
1
1
1
1
1
1
1
1
1
1
1
1
1
1
1
1
1
1
1
1
0.999989
0.999966
0.999968
1
1
1
1
1
1
1
1
1
1
1
1
1
1
1
1
1
1
1
1
0.999999
0.999984
0.999923
1
1
1
1
1
1
1
1
1
1
1
1
1
1
1
1
1
1
1
1
1
1
0.999993
1
1
1
1
1
1
1
1
1
1
1
1
1
1
1
1
1
1
1
1
1
1
1
1
1
1
1
1
1
1
1
1
1
1
1
1
1
1
1
1
1
1
1
1
1
1
1
1
1
1
1
1
1
1
1
1
1
1
1
1
1
1
1
1
1
1
1
1
1
1
1
1
1
1
1
1
1
1
1
1
1
1
1
1
1
1
1
1
1
1
1
1
1
1
1
1
1
1
1
1
1
1
1
1
1
1
1
1
1
1
1
1
1
1
1
1
1
1
1
1
1
1
1
1
1
1
1
1
1
1
1
1
1
1
1
1
1
1
1
1
1
1
1
1
1
1
1
1
1
1
1
1
1
1
1
1
1
1
1
1
1
1
1
1
1
1
1
1
1
1
1
1
1
1
1
1
1
1
1
1
1
1
1
1
1
1
1
1
1
1
1
1
1
1
1
1
1
1
1
1
1
1
1
1
1
1
1
1
1
1
0.999999
1
1
1
1
1
1
1
1
1
1
1
1
1
1
1
1
1
1
1
1
1
1
0.999999
1
1
1
1
1
1
1
1
1
1
1
1
1
1
1
1
1
1
1
1
1
1
0.999999
1
1
1
1
1
1
1
1
1
1
1
1
1
1
1
1
1
1
1
1
1
0.999999
1
1
1
1
1
1
1
1
1
1
1
1
1
1
1
1
1
1
1
1
1
1
0.999999
1
1
1
1
1
1
1
1
1
1
1
1
1
1
1
1
1
1
1
1
1
1
0.999999
1
1
1
1
1
1
1
1
1
1
1
1
1
1
1
1
1
1
1
1
1
1
0.999999
1
1
1
1
1
1
1
1
1
1
1
1
1
1
1
1
1
1
1
1
1
1
0.999999
1
1
1
1
1
1
1
1
1
1
1
1
1
1
1
1
1
1
1
1
1
1
0.999999
0.999999
1
1
1
1
1
1
1
1
1
1
1
1
1
1
1
1
1
1
1
1
1
0.999999
0.999999
1
1
1
1
1
1
1
1
1
1
1
1
1
1
1
1
1
1
1
1
0.999999
0.999999
0.999999
1
1
1
1
1
1
1
1
1
1
1
1
1
1
1
1
1
1
1
1
0.999999
0.999999
1
1
1
1
1
1
1
1
1
1
1
1
1
1
1
1
1
1
1
1
1
1
0.999999
1
1
1
1
1
1
1
1
1
1
1
1
1
1
1
1
1
1
1
1
0.00013817
0.000138129
0.000138143
0.00229697
0.027644
0.00845114
0.00595658
0.00455805
0.0477835
0.0480241
0.0479848
0.0437956
0.0349933
0.0480239
0.0480262
0.0473978
0.00617019
0.0357092
0.0480235
0.0222351
0.00104564
0.00197045
0.0040458
0.00150423
4.00341e-12
9.39338e-08
1.92821e-07
0.000153755
0.27976
0.261065
0.215291
0.155892
0.936804
0.930168
0.916083
0.89378
0.999988
0.999993
0.999997
0.999997
0.999988
0.999964
0.999943
0.999941
0.999952
0.999953
0.999941
0.99994
0.999995
0.999997
0.999998
0.999997
0.999999
0.999998
0.999998
0.999997
0.999997
0.999997
0.999998
0.999999
0.999998
0.999997
0.999998
0.999998
0.999998
0.999991
0.999969
0.999957
0.999991
0.999936
0.999923
0.999919
0.999918
0.999919
0.999919
0.999919
0.999926
0.99992
0.999929
0.999923
1
1
1
0.99999
1
1
1
1
1
1
1
1
1
1
1
1
1
1
1
1
1
1
1
1
1
1
1
1
1
1
1
1
1
1
1
1
1
1
1
1
1
1
1
1
1
1
1
1
1
1
1
1
1
1
1
1
1
1
1
1
1
1
1
1
1
1
1
1
1
1
1
1
1
1
1
1
1
1
1
1
1
1
1
1
1
1
1
1
0.00494212
0.00214395
0.00364225
0.0119179
0.0198067
0.00284877
0.00216291
0.0021544
0.00291141
0.0345897
0.0669678
0.0215473
0.00914109
0.0117642
0.0195086
0.0270998
0.0252877
0.0260202
0.0492227
0.00555996
0.00530621
0.00439233
0.0485451
0.0623034
0.00215873
0.00215923
0.00215279
0.0204137
0.0830481
0.0528495
0.00365999
0.0133336
0.0343073
0.0342919
0.0275203
0.0252289
0.0353168
0.0355462
0.021792
0.0144166
0.0804197
0.152041
0.143206
0.0467224
0.0118146
0.00503022
0.0486579
0.0870791
0.0529786
0.00358059
0.00592768
0.029393
0.0248757
0.00736884
0.0283856
0.044307
0.0414412
0.0255075
0.0517203
0.147753
0.15204
0.152041
0.15204
0.114567
0.0136399
0.0441519
0.0869104
0.0819535
0.0250316
7.94038e-06
6.44035e-06
6.48312e-06
0.000503314
0.0265887
0.0442859
0.0370655
0.00453912
0.0330932
0.0440674
0.0714626
0.121013
0.1371
0.0670381
0.00357695
0.000939973
0.00504303
0.00642344
0.00903684
0.00839984
0.000151172
7.30465e-05
0.00195089
0.00360294
0.00381056
0.00233164
0.00037639
0.00161044
0.000104197
0.000719796
0.00611247
0.0127892
0.00327164
0.00214727
0.000844747
0.000470789
0.000992457
0.00108247
0.00152976
0.000179287
2.76893e-05
2.31857e-05
2.64698e-25
4.04737e-20
-2.54732e-20
0.000160177
0.000299949
0.000104312
0.000104192
0.000114783
0.00101149
0.000753298
0.000878692
0.000626568
0.000415323
0.000503263
0.000765325
0.000697384
0.000519253
0.000260331
-2.93552e-07
-1.31822e-09
0.00377488
0.0166687
0.099264
0.0505241
0.0208248
0.00954853
0.00010523
0.000104561
0.000105499
0.000103857
0.000217491
0.000173581
0.000168199
0.000168731
0.0155836
0.0750207
0.189664
0.294949
0.413564
0.540358
0.645078
0.858766
0.796813
0.714531
0.604717
0.474367
0.290657
0.136366
0.0701478
0.0699828
0.160357
0.281345
0.385174
0.571515
0.805942
0.935747
0.98712
0.994303
0.995564
0.996364
0.99978
0.998169
0.996939
0.997854
0.989545
0.935753
0.83968
0.751349
0.740885
0.849875
0.930691
0.979135
0.998605
0.999007
0.999692
0.999998
0.999996
0.999996
0.999982
0.999982
0.999982
0.999981
0.999687
0.999818
0.999612
0.99794
0.996433
0.992585
0.989258
0.992867
0.99767
0.999342
0.999965
0.999967
0.99996
0.999976
0.999991
0.999955
0.999973
0.999977
0.999979
0.999983
0.999998
1
1
1
0.999997
1
1
0.999795
0.999775
0.999871
0.999967
0.99983
0.99982
0.999961
0.999945
0.999997
0.999993
0.999989
0.999995
0.999998
0.999999
1
1
1
1
1
1
1
0.999998
0.999902
0.999789
0.999791
0.999943
0.999945
0.999997
0.999997
0.999998
0.999999
0.999999
0.999999
0.999994
0.999992
0.999995
0.999998
0.999994
0.999988
0.999988
0.999849
0.999789
0.99979
0.999895
0.99998
0.999949
0.999999
0.999999
0.999997
0.999995
0.999995
0.999992
0.999968
0.999963
0.999985
0.999985
0.99997
0.999969
0.99997
0.999921
0.999905
0.999955
0.999991
0.99998
0.999945
0.999998
0.999998
0.999998
0.999987
0.999951
0.999938
0.999934
0.999934
0.999983
0.999996
0.999996
0.999947
0.999896
0.999969
0.999998
0.999999
0.999991
0.999976
0.999947
0.999961
0.999967
0.999979
0.999958
0.999934
0.999934
0.999934
0.999979
0.999996
0.999996
0.999987
0.999893
0.99989
0.999916
0.999991
0.999984
0.999974
0.99998
0.999995
0.999926
0.999945
0.999949
0.999953
0.99996
0.99996
0.999954
0.999954
0.999968
0.999992
0.999982
0.999923
0.999891
0.999908
0.999945
0.999957
0.999972
0.999996
0.999997
0.999919
0.999946
0.999956
0.999955
0.999948
0.999948
0.99995
0.999949
0.999943
0.999943
0.999955
0.99997
0.999972
0.999969
0.999972
0.999986
0.999981
0.99999
0.999997
0.999931
0.999979
0.999971
0.999956
0.999959
0.999985
0.999985
0.999975
0.99995
0.999943
0.999945
0.999949
0.999988
0.99999
0.999989
0.999986
0.999971
0.999983
0.999997
0.99999
0.999997
0.999997
0.999985
0.999981
0.999984
0.999985
0.99999
0.999993
0.999988
0.999965
0.99996
0.999968
0.999986
0.999981
0.999971
0.999971
0.999981
0.999997
1
1
0.999999
1
0.999999
0.999996
0.999992
0.999991
0.999994
0.999999
0.999999
1
0.999996
0.999972
0.999971
0.999971
0.999971
0.99999
0.999997
1
1
1
1
1
1
1
1
0.999999
0.999999
1
1
1
0.999998
0.999983
0.999971
0.999987
0.999999
0.999997
1
1
1
1
1
1
1
1
1
1
1
1
1
1
1
0.999996
0.999998
0.999999
0.999997
1
1
1
1
1
1
1
1
1
1
1
1
1
1
1
1
1
1
0.999997
1
1
1
1
1
1
1
1
1
1
1
1
1
1
1
1
1
1
0.999997
1
1
1
1
1
1
1
1
1
1
1
1
1
1
1
1
1
0.999999
0.999997
1
1
1
1
1
1
1
1
1
1
1
1
1
1
1
1
1
0.999998
0.999998
1
1
1
1
1
1
1
1
1
1
1
1
1
1
1
1
0.999999
0.999998
0.999999
1
1
1
1
1
1
1
1
1
1
1
1
1
1
1
1
0.999999
0.999998
1
1
1
1
1
1
1
1
1
1
1
1
1
1
1
1
1
1
0.999999
1
1
1
1
1
1
1
1
1
1
1
1
1
1
1
1
1
1
1
1
1
1
1
1
1
1
1
1
1
1
1
1
1
1
1
1
1
1
1
1
1
1
1
1
1
1
1
1
1
1
1
1
1
1
1
1
1
1
1
1
1
1
1
1
1
1
1
1
1
1
1
1
1
1
1
1
1
1
1
1
1
1
1
1
1
1
1
0.999999
0.999996
0.999999
1
1
1
1
1
1
1
1
1
1
1
1
1
1
1
1
0.999999
0.999995
0.999995
0.999999
1
1
1
1
1
1
1
1
1
1
1
1
1
1
1
1
0.999997
0.999995
0.999995
1
1
1
1
0.999998
1
1
1
1
1
1
1
1
1
1
1
1
0.999997
0.999995
0.999996
1
1
0.999999
0.999997
1
1
1
1
1
1
1
1
1
1
1
1
1
0.999996
0.999995
0.999997
1
1
0.999997
1
1
1
1
1
1
1
1
1
1
1
1
1
1
0.999996
0.999996
0.999999
1
0.999997
1
1
1
1
1
1
1
1
1
1
1
1
1
1
1
0.999998
0.999997
0.999999
0.999998
)
;

boundaryField
{
    leftWall
    {
        type            alphaContactAngle;
        thetaProperties 
6
(
(galistan air) 90 0 0 0
(oil galistan) 90 0 0 0
(water oil) 90 0 0 0
(water air) 90 0 0 0
(oil air) 90 0 0 0
(water galistan) 90 0 0 0
);
        value           nonuniform List<scalar> 
50
(
1.11187e-09
1.39872e-09
2.39311e-09
1.64824e-08
0.000101627
0.00110233
0.00113124
0.00059541
0.00215875
0.0271894
0.0353597
0.0198751
0.000256028
0.000242133
0.000145533
0.000669631
0.456145
0.999337
0.99992
1
1
1
1
1
1
1
1
1
1
1
1
1
1
1
1
1
1
1
1
1
1
1
1
1
1
1
1
1
1
1
)
;
    }
    rightWall
    {
        type            alphaContactAngle;
        thetaProperties 
6
(
(galistan air) 90 0 0 0
(oil galistan) 90 0 0 0
(water oil) 90 0 0 0
(water air) 90 0 0 0
(oil air) 90 0 0 0
(water galistan) 90 0 0 0
);
        value           nonuniform List<scalar> 
50
(
0.00308304
0.0028716
0.00764157
0.0418735
0.0436732
0.0342901
0.0501334
0.0523272
0.0492227
0.0355462
0.0414412
0.0370655
0.00233164
-2.54732e-20
0.0166687
0.645078
0.996364
0.999982
0.999955
0.999945
0.999945
0.999949
0.999945
0.999947
0.999995
0.999997
0.999997
0.999997
0.999997
0.999997
0.999997
0.999997
0.999997
0.999997
0.999997
0.999998
0.999999
1
1
1
1
1
1
1
1
0.999998
0.999997
0.999997
0.999997
0.999998
)
;
    }
    lowerWall
    {
        type            alphaContactAngle;
        thetaProperties 
6
(
(galistan air) 90 0 0 0
(oil galistan) 90 0 0 0
(water oil) 90 0 0 0
(water air) 90 0 0 0
(oil air) 90 0 0 0
(water galistan) 90 0 0 0
);
        value           nonuniform List<scalar> 
62
(
1.11187e-09
1.05213e-09
1.0653e-09
1.15635e-09
1.2997e-09
1.26593e-09
9.70729e-10
5.75989e-10
3.24125e-10
2.33514e-10
2.01045e-10
1.96205e-10
1.90786e-10
1.94659e-10
1.95823e-10
2.17761e-10
2.61536e-10
2.9558e-10
2.78197e-10
1.41934e-10
1.58393e-08
6.20562e-07
6.22796e-07
6.22796e-07
6.22826e-07
1.25991e-07
5.00652e-09
7.54257e-18
0.00672556
0.00998131
0.00997823
0.00013817
0.000138129
0.000138143
0.00229697
0.000267801
0.00076531
0.0101458
0.0122091
0.00993206
0.00465834
0.00799786
0.00863761
0.000267801
0.00031966
0.00420183
0.00621966
0.00621245
0.00566223
0.00254483
0.00196638
0.00196597
0.00193639
0.00167376
0.00167365
0.00167372
0.00167357
0.0017273
0.00189621
0.00269236
0.00309584
0.00308304
)
;
    }
    atmosphere
    {
        type            inletOutlet;
        inletValue      uniform 1;
        value           nonuniform List<scalar> 
46
(
1
1
0.999999
1
1
1
1
1
1
1
1
1
1
1
1
1
1
1
1
1
1
1
1
1
1
1
1
1
1
1
1
1
1
1
1
1
1
1
1
1
1
1
0.999998
0.999997
0.999999
0.999998
)
;
    }
    defaultFaces
    {
        type            empty;
    }
}


// ************************************************************************* //
