/*--------------------------------*- C++ -*----------------------------------*\
| =========                 |                                                 |
| \\      /  F ield         | OpenFOAM: The Open Source CFD Toolbox           |
|  \\    /   O peration     | Version:  2312                                  |
|   \\  /    A nd           | Website:  www.openfoam.com                      |
|    \\/     M anipulation  |                                                 |
\*---------------------------------------------------------------------------*/
FoamFile
{
    version     2.0;
    format      ascii;
    arch        "LSB;label=32;scalar=64";
    class       volScalarField;
    location    "5.65";
    object      p_rgh;
}
// * * * * * * * * * * * * * * * * * * * * * * * * * * * * * * * * * * * * * //

dimensions      [1 -1 -2 0 0 0 0];

internalField   nonuniform List<scalar> 
2268
(
5231.42
5233.11
5236.83
5243.9
5255.68
5273.16
5296.69
5326.17
5361.15
5401.14
5445.95
5495.74
5550.56
5610.19
5673.95
5740.31
5806.51
5869.87
5928.34
5980.19
6022.94
6053.9
6070.68
5230.52
5232.15
5235.73
5242.51
5254.06
5271.43
5294.91
5324.43
5359.45
5399.46
5444.29
5494.15
5549.15
5609.08
5673.32
5740.34
5807.11
5870.79
5929.37
5981.36
6024.26
6055.35
6072.6
5229.39
5230.76
5233.75
5239.83
5250.86
5268
5291.42
5320.99
5356.11
5396.16
5441
5491
5546.36
5606.88
5672.05
5740.31
5808.39
5872.59
5931.19
5983.23
6026.15
6057.49
6075.95
5227.89
5228.79
5230.79
5235.73
5245.98
5262.82
5286.14
5315.84
5351.11
5391.23
5436.06
5486.26
5542.17
5603.55
5670.12
5740.65
5810.6
5875.43
5933.88
5985.92
6028.66
6060.17
6080.48
5223.22
5223.19
5222.57
5224.14
5233.6
5252.49
5277.87
5308.75
5344.52
5384.63
5429.27
5479.55
5535.96
5598.61
5666.98
5740.67
5813.75
5879.2
5937.11
5989.24
6031.49
6062.95
6085.9
3732.69
3738.4
3747.29
3774.85
3844.81
3964.4
4096.6
4253.68
4426.67
4608.07
4788.4
4971.57
5151.48
5318.37
5477.33
5643.27
5790.29
5809.85
5794.05
5846.09
5891.89
5921.34
6011.85
1095.82
1094.38
1091.58
1087.61
1083.1
1082.14
1126.71
1194.36
1282.88
1392.75
1523.34
1690.13
1912.43
2196.68
2553.42
2986.22
3426.26
3898.21
4291.84
4524.62
4647.34
4722.56
4724.98
1096.88
1095.19
1092.2
1088.24
1083.34
1077.99
1072.15
1067.29
1062.81
1058.25
1055.66
1055.17
1056.3
1058.93
1061.17
1062.59
1075.06
1133.07
1217.05
1300.6
1355.65
1392.01
1400.81
2910.41
2967.51
3063.39
3175.38
3277.14
3336.71
3357.78
3336.41
3288.29
3233.46
3187.73
3157.79
3138.05
3121.9
3105.72
3084.26
3055.34
3029.04
3015.9
2845.56
2928.43
3045.64
3170.21
3287.4
3350.31
3367.54
3341.6
3286.76
3223.05
3171.04
3142.67
3123.77
3113.06
3100.06
3079.33
3038.97
2994.15
2970.29
2100.83
2215.11
2450.67
2729.16
2949.11
3080.09
3126.3
3099.26
3006.72
2878.29
2762.75
2703.63
2663.68
2617.94
2568.48
2518.31
2452.58
2400.69
2393.43
1206.77
1222.24
1289.13
1477.16
1768.27
1948.28
1920.52
1770.98
1578.17
1461.49
1426.95
1408.69
1396.84
1396.85
1401.74
1385.97
1329.07
1325.57
1387.83
1219.41
1222.05
1219.05
1206.35
1195.67
1182.92
1185.3
1191.56
1202.33
1217.87
1222.96
1211.82
1190.01
1179.22
1177.52
1145.1
1170.58
1196.16
1163.02
1220.88
1234.83
1234.55
1231.67
1214.56
1200.39
1197.71
1203.22
1213
1221.17
1227.2
1213.76
1202.53
1219.12
1218.92
1168.08
1175.92
1204.7
1163.75
1213.99
1221.09
1213.64
1226.84
1238.26
1208.74
1204.49
1209.18
1213.25
1221.25
1245.59
1221.64
1203.52
1194.7
1198.94
1183.84
1202.56
1209.1
1158.62
1196.61
1193
1197.24
1215.65
1240.23
1227.19
1207.41
1207.72
1211.34
1229.29
1309.91
1241.94
1191.06
1183.07
1190.19
1203.27
1212.17
1209.12
1166.12
1096.85
1095.54
1092.29
1088.82
1083.9
1075.15
1069.02
1065.86
1060.84
1055.16
1052.35
1053.28
1055.35
1058.24
1061.81
1065.7
1070.2
1075.56
1082.38
1091.86
1103.53
1116.86
1130.89
1085.52
1083.88
1073.49
1064.9
1051.24
1038.42
1025.9
1024.37
1015.29
999.075
993.875
1003.53
1021.52
1044.73
1056.86
1065.74
1071.14
1075.47
1080.46
1092.34
1103.05
1114.91
1144.85
892.684
869.222
848.204
825.362
803.177
787.585
786.907
776.351
777.046
773.261
759.918
754.457
763.63
787.431
820.629
847.687
884.703
909.694
937.995
952.046
955.24
946.875
928.432
721.556
723.767
717.509
708.696
707.251
708.494
704.529
707.388
681.52
671.164
655.661
681.72
680.234
681.426
683.156
685.768
693.481
703.023
711.683
719.533
726.399
734.315
760.476
731.586
729.666
725.751
718.793
714.273
707.808
691.15
661.984
665.392
669.828
680.115
677.403
676.357
676.578
678.183
680.569
684.538
689.748
695.119
702.383
712.497
723.81
730.703
738.031
735.639
731.216
724.679
717.258
708.377
697.696
680.775
677.308
679.646
674.087
671.743
671.296
672.095
674.293
678.156
682.838
688.375
694.686
701.438
714.03
726.433
730.989
747.706
743.824
736.817
728.768
720.405
715.765
695.903
642.973
594.458
554.17
530.851
518.049
521.841
543.143
572.258
606.333
638.832
666.629
693.531
703.341
710.774
723.565
750.585
764.106
756.767
714.767
637.437
534.655
398.386
241.625
145.888
87.8102
54.879
39.156
35.4143
39.111
46.4328
61.5241
85.8967
121.95
170.875
232.804
314.034
386.788
448.395
504.621
442.326
370.303
262.904
160.986
81.5881
27.0502
7.69637
1.47531
0.787628
0.708498
0.663619
0.676118
0.462875
0.744781
0.925018
0.821648
0.891799
1.1313
2.78893
6.1615
18.9586
39.2257
52.7585
9.60727
9.3762
4.80618
3.77004
3.37767
1.20415
0.143762
0.19147
0.20008
0.203922
0.205191
0.201655
0.197735
0.200053
0.192216
0.193659
0.191106
0.169999
0.153321
0.181137
1.09414
1.50971
0.538427
1.36057
0.588327
0.818179
-0.0450324
-0.0282884
0.0294387
0.094754
0.132022
0.152535
0.167418
0.17529
0.175746
0.191237
0.189843
0.186901
0.190323
0.189734
0.174595
0.14047
0.128452
0.114766
0.103692
0.131215
-0.0795045
-0.0739578
-0.0560282
-0.0332196
-0.00684692
0.0340992
0.0754898
0.0992072
0.124519
0.142006
0.150898
0.157579
0.168211
0.164041
0.157078
0.174137
0.179476
0.159498
0.130804
0.240162
0.274896
0.255252
0.246973
-0.0458218
-0.0407776
-0.0278247
-0.00741038
0.0129938
0.0388536
0.0676955
0.0893497
0.1079
0.120816
0.130009
0.131336
0.13111
0.129721
0.130945
0.145772
0.145564
0.142087
0.214755
0.295837
0.322072
0.273513
0.194664
-0.0237899
-0.0176628
-0.00609867
0.00609777
0.0213599
0.040594
0.0607315
0.0773022
0.0914847
0.102077
0.109331
0.113084
0.114441
0.114047
0.111958
0.110308
0.112075
0.134506
0.240413
0.278588
0.235513
0.104045
0.0369767
-0.0126722
-0.0095196
-0.000896402
0.0118697
0.0250708
0.0395689
0.0544478
0.0678256
0.0793243
0.0883142
0.0946716
0.0985384
0.100201
0.100022
0.0982434
0.095465
0.100019
0.116713
0.104617
0.0684675
0.058624
0.0464563
0.0370675
0.00144257
0.00324194
0.00881494
0.0173274
0.0274509
0.0386371
0.050033
0.0606145
0.0698186
0.0772428
0.0826976
0.0861876
0.0878475
0.0878493
0.0863519
0.0838392
0.0843075
0.0768188
0.0684263
0.0617106
0.0594326
0.0569312
0.0366646
0.00913307
0.0110572
0.0152855
0.0215851
0.0293173
0.0378801
0.0466064
0.0548917
0.0622039
0.0682249
0.0727577
0.0757447
0.0772155
0.0772528
0.0759506
0.0734889
0.0699551
0.0656848
0.0606746
0.0558852
0.102285
0.164364
0.0357734
0.0148645
0.0164758
0.0197586
0.0245495
0.0304367
0.0369725
0.0436761
0.0501553
0.0559209
0.0607332
0.0644075
0.0668532
0.068049
0.068022
0.0668171
0.0644949
0.0611023
0.0568199
0.0524184
0.0482112
0.106085
0.173083
0.133802
0.0189159
0.0201832
0.0227238
0.0263821
0.0308811
0.0358902
0.0410571
0.0460968
0.0506098
0.0544047
0.0573154
0.0592403
0.060133
0.0599856
0.0588124
0.0566425
0.0535136
0.0495214
0.0453625
0.0409086
0.037699
0.120318
0.199805
0.0216384
0.0226095
0.0245662
0.0273636
0.0308091
0.0346527
0.0386378
0.0425269
0.0460296
0.0489796
0.0512316
0.0526854
0.053283
0.0529975
0.0518229
0.0497673
0.0468496
0.0431182
0.0392973
0.0370144
0.0307174
0.0203466
0.0278882
0.0233361
0.0240667
0.0255654
0.0277025
0.0303396
0.0332878
0.036348
0.039323
0.0420131
0.0442681
0.0459633
0.047007
0.0473378
0.0469189
0.0457321
0.0437727
0.0410432
0.0375536
0.0336139
0.0315697
0.027331
0.0199894
0.00971051
0.0242444
0.0247857
0.0259273
0.0275549
0.0295668
0.0318175
0.0341505
0.0364067
0.0384426
0.0401291
0.0413612
0.0420572
0.0421576
0.0416227
0.0404288
0.0385647
0.0360266
0.0328149
0.0289424
0.0247316
0.0231085
0.0189296
0.0123755
0.0245479
0.024941
0.0258044
0.0270376
0.0285638
0.0302689
0.0320285
0.0337174
0.03523
0.0364551
0.0373074
0.0377153
0.0376246
0.0369967
0.0358068
0.0340416
0.0316971
0.0287758
0.0252814
0.0212434
0.0173492
0.0160052
0.0118249
0.0243876
0.0246657
0.025313
0.0262395
0.0273867
0.0286638
0.0299719
0.0312136
0.0323061
0.0331619
0.0337076
0.0338828
0.0336397
0.0329432
0.0317694
0.0301055
0.0279485
0.0253048
0.0221907
0.0186294
0.0146788
0.0107473
0.00804079
0.0238754
0.0240631
0.0245422
0.02523
0.0260804
0.0270213
0.0279729
0.0288617
0.0296198
0.0301856
0.0304869
0.0304778
0.0301179
0.0293759
0.02823
0.0266685
0.0246893
0.0223001
0.0195201
0.0163798
0.0129242
0.00921825
0.00566887
0.0230934
0.0232106
0.0235601
0.0240626
0.0246823
0.0253623
0.0260258
0.0266366
0.0271271
0.0274802
0.0275845
0.0274329
0.0269877
0.0262208
0.0251129
0.0236539
0.0218423
0.0196862
0.0172035
0.0144235
0.0113911
0.00817064
0.00482185
0.0221064
0.0221687
0.0224185
0.0227799
0.0232359
0.0237188
0.0241274
0.0245251
0.0248205
0.0249789
0.0249454
0.0246907
0.0241883
0.0234147
0.0223535
0.0209961
0.0193419
0.0173984
0.0151817
0.0127166
0.0100382
0.00718836
0.00425269
0.0209594
0.0209802
0.0211599
0.0214475
0.021869
0.0220921
0.0222739
0.022508
0.0226476
0.022673
0.0225331
0.0222057
0.0216695
0.0209041
0.0198965
0.0186393
0.0171323
0.0153823
0.0134031
0.011217
0.00885498
0.006359
0.00373602
0.0196881
0.0196844
0.019877
0.0204111
0.0211499
0.0203673
0.0204605
0.0205758
0.0206182
0.0205328
0.0203138
0.0199396
0.0193896
0.0186445
0.0176954
0.0165365
0.0151672
0.0135934
0.0118268
0.00988604
0.00779586
0.00558327
0.00327299
0.0183135
0.0183209
0.018858
0.0211029
0.0202644
0.0186177
0.0186736
0.0187011
0.0186605
0.0185193
0.0182579
0.017854
0.0173159
0.0165979
0.0157109
0.0146481
0.0134082
0.0119958
0.0104207
0.008698
0.00684748
0.00489138
0.00285157
0.0168596
0.0169789
0.0179649
0.0197734
0.0183858
0.0169157
0.0169101
0.016882
0.0167927
0.0166178
0.0163378
0.0159363
0.0154038
0.0147302
0.0139098
0.0129411
0.0118233
0.0105599
0.00915861
0.00763178
0.00599527
0.00426605
0.00246669
0.015332
0.0155754
0.0170001
0.0182192
0.0155139
0.0152138
0.0151738
0.0151163
0.0150038
0.0148156
0.0145344
0.0141464
0.0136419
0.0130146
0.0122648
0.0113883
0.010386
0.00926084
0.00801897
0.00667008
0.00522659
0.00370194
0.00211553
0.013753
0.0142228
0.0165325
0.0154259
0.0136173
0.0135208
0.0134711
0.0134039
0.0132877
0.0131026
0.0128338
0.0124705
0.0120045
0.0114289
0.0107524
0.00996652
0.00907394
0.00807805
0.00698367
0.00579859
0.00453196
0.00318566
0.00179379
0.0121288
0.0127876
0.0150618
0.013516
0.0119862
0.0118525
0.0118125
0.0117473
0.0116414
0.0114715
0.0112252
0.0108946
0.010475
0.00996456
0.00935412
0.00865581
0.00786808
0.00699369
0.00603696
0.00500453
0.00390683
0.002703
0.00149986
0.0104996
0.0113947
0.0136239
0.0118852
0.0103034
0.0102418
0.0102066
0.0101503
0.0100631
0.00991614
0.00969877
0.00940586
0.00903453
0.00858278
0.00804821
0.00743744
0.00675127
0.00599195
0.00516389
0.00427093
0.00330173
0.00228432
0.00123863
0.00886596
0.00997067
0.0121115
0.00968003
0.0086514
0.0086739
0.00865388
0.00861571
0.00855147
0.00843114
0.00824609
0.00799364
0.00767275
0.00728287
0.00682429
0.00629685
0.00570815
0.00505946
0.00435349
0.00357941
0.00276203
0.00189842
0.00100165
0.00726783
0.00835137
0.0106155
0.00781971
0.00707229
0.00716758
0.00716064
0.00714474
0.00710384
0.00701047
0.00685874
0.00664785
0.00637812
0.00604987
0.00566358
0.00521994
0.0047257
0.00418191
0.0035894
0.00294723
0.00226344
0.00153917
0.00078678
0.00573145
0.00655423
0.00917535
0.00751216
0.00565695
0.00573873
0.00572754
0.00573616
0.00571546
0.00564709
0.00552793
0.00535847
0.00513983
0.00487286
0.00455851
0.00419854
0.00379371
0.00335248
0.00287246
0.00235343
0.00179843
0.00121006
0.000593173
0.00427884
0.00529327
0.00792046
0.00629794
0.00450438
0.00437075
0.00436028
0.00438656
0.00438018
0.00433325
0.00424468
0.00411558
0.00394734
0.00374081
0.00349666
0.00321571
0.00289924
0.00256169
0.00219266
0.0017927
0.0013633
0.000904393
0.000421483
0.00289676
0.00497155
0.00596214
0.00479184
0.00319247
0.00302535
0.00305277
0.00308906
0.00309165
0.00306188
0.00300122
0.00291084
0.00279189
0.00264493
0.00247001
0.00226669
0.002035
0.00180288
0.00154318
0.00125934
0.000952723
0.000623987
0.000271206
0.00155671
0.00316047
0.00362636
0.00254441
0.00177645
0.00178775
0.00181562
0.00183963
0.00184332
0.00182687
0.00179153
0.0017383
0.00166776
0.00158015
0.00147516
0.00135072
0.00119685
0.00107216
0.000917738
0.000746955
0.000561573
0.000359668
0.000141168
0.000348777
0.000717463
0.00165933
0.000558049
0.000430455
0.000586818
0.000591058
0.000607754
0.000609885
0.000604737
0.000593837
0.000577498
0.000555777
0.000528822
0.000497505
0.000465585
0.000444418
0.000372486
0.000310918
0.000248348
0.000181213
0.000105304
1.54619e-05
1136.31
1138.05
1133.95
1125.12
1161.92
1148.06
1147.49
1152.51
910.001
961.198
1082.92
1130.4
790.021
787.408
811.26
843.267
738.284
740.427
735.419
738.607
732.164
733.923
735.484
739.335
774.409
771.154
760.942
744.587
552.812
600.462
642.101
680.47
67.0064
77.4954
90.9816
109.38
0.343822
0.233969
0.159189
0.157273
0.137627
0.164809
0.188318
0.184439
0.25034
0.238739
0.17395
0.158074
0.0992618
0.0623151
0.0462795
0.0421955
0.0308659
0.0274686
0.0244586
0.0221447
0.0332637
0.0292845
0.0241988
0.0183147
0.0296148
0.026567
0.0230603
0.020247
0.0282142
0.0327088
0.0601761
0.0787798
0.0329718
0.116584
0.193989
0.201428
0.144337
0.181769
0.247482
0.244665
0.155564
0.183392
0.168544
0.205912
0.00299931
-0.000432203
-0.00276525
0.0111027
0.00520081
0.000700476
-0.00246852
-0.00546853
0.00683417
0.00258772
-0.00110502
-0.00348999
0.00531509
0.00315991
9.91043e-05
-0.00328804
0.00313769
0.00163101
-0.000524566
-0.00288124
0.00236768
0.000694416
-0.000984659
-0.00263296
0.00198937
0.000536393
-0.000911636
-0.00236551
0.00174675
0.000463439
-0.000820179
-0.00210253
0.00151961
0.000386576
-0.000747449
-0.0018849
0.00130647
0.000307004
-0.000698391
-0.0017059
0.00110386
0.000220895
-0.000665537
-0.00155699
0.000917755
0.000141474
-0.000641735
-0.00142799
0.000744294
6.28084e-05
-0.000621459
-0.0013122
0.000587547
-5.14939e-06
-0.000604962
-0.00120848
0.000446181
-6.8862e-05
-0.000587086
-0.00111107
0.000323366
-0.000117316
-0.000564344
-0.0010141
0.000214489
-0.000158605
-0.000534065
-0.000914601
0.000123793
-0.000182067
-0.000493685
-0.000807184
4.96352e-05
-0.00019391
-0.000439163
-0.000688424
-2.30793e-06
-0.000182152
-0.000367307
-0.000553204
-3.87014e-05
-0.000158461
-0.000279339
-0.000403233
-6.07871e-05
-0.000114505
-0.000174696
-0.000238588
1152.66
1183.64
1193.74
1197.52
1225.46
1219.86
1210.74
1209.82
1210.74
1269.39
1275.07
1238.12
1165.27
1178.52
1194.42
1199.1
1214.03
1202.68
1172.69
1164.11
1182.35
1194.12
1193.6
1189.68
1202.41
1210.07
1211.7
1252.49
1179.9
1157.6
1186.8
1190.03
1184.19
1185.91
1195.38
1222.12
1211.64
1196.76
1152.9
1177.94
1206
1178.58
1119.8
1172.48
1200.09
1196.63
1075.45
1034.55
1100.82
1167.58
1180.64
1172.78
1179.26
1218.87
1232.63
1237.93
1202.05
887.704
892.112
904.345
948.445
965.519
970.939
917.308
987.321
1039.35
1031.91
947.843
894.782
902.602
919.855
944.728
942.883
959.915
1030.36
1084.7
759.16
773.334
791.829
807.974
818.894
779.325
776.198
813.256
802.729
792.045
783.326
778.932
778.09
798.136
802.464
813.782
820.206
788.761
780.864
744.247
746.751
758.177
777.414
777.554
775.82
781.628
783.946
793.622
798.665
787.832
783.043
776.507
780.069
776.254
771.022
766.529
764.358
766.317
748.143
751.154
756.84
774.196
795.195
783.989
787.975
791
796.536
802.352
796.934
785.32
775.718
766.35
758.119
756.118
765.856
802.931
835.953
713.787
731.725
753.895
777.318
816.671
820.821
801.61
800
800.615
805.917
821.356
808.465
768.172
716.841
677.604
643.388
576.075
482.28
405.255
144.958
201.839
263.009
346.386
470.343
629.447
754.774
782.547
770.957
719.041
632.084
535.296
366.634
224.963
168.337
119.404
89.284
73.6837
60.9889
0.65017
6.94412
14.853
20.5572
39.6676
104.276
190.113
248.477
247.16
167.797
100.597
43.1777
28.7996
19.4724
2.76265
-0.0901929
-0.084947
-0.042244
0.00977735
0.111509
0.0854631
0.0676859
0.686763
2.89028
4.22412
7.34156
11.7547
15.7511
20.5377
13.1282
4.4227
5.09395
-0.158059
-0.123983
-0.0927288
-0.0736914
-0.0532825
0.0205014
0.0852951
0.0484976
0.036768
0.0164985
-0.0471691
-0.100779
-0.141832
-0.168072
-0.112364
-0.186108
-0.156415
0.262977
0.234312
0.0376862
-0.0917827
0.0597917
0.10523
0.00145279
0.0629003
0.0272741
0.015281
0.00743855
-0.0133942
-0.0446759
-0.0827681
-0.11853
-0.141064
-0.151477
-0.152718
-0.142826
-0.135248
-0.148865
-0.101334
0.0406058
0.177857
0.183086
0.054251
0.108228
0.0175854
0.00734304
-0.00686601
-0.0195002
-0.0375798
-0.0615012
-0.0774324
-0.0936024
-0.109454
-0.117241
-0.101372
-0.0405509
-0.0155447
0.138291
0.212449
0.208114
0.0997382
0.0511527
0.179457
0.0125498
0.00505057
-0.00209986
-0.00622982
-0.0196295
-0.0294681
-0.0206054
-0.0319736
-0.0659863
-0.0612303
-0.0404603
-0.0383347
-0.0071585
0.0840722
0.116108
0.0299384
0.000668411
0.0921726
0.187815
0.0142401
0.00551937
0.00330884
0.0305376
0.0747651
0.0652848
0.0410739
0.0135
-0.0554517
-0.0717517
-0.0690828
-0.0044291
0.127416
0.049479
-0.0178663
-0.0263798
0.00743146
0.13569
0.182231
0.0826669
0.0818358
0.0730969
0.0918027
0.109618
0.0958519
0.0756792
-0.0326494
-0.061648
-0.0630671
-0.0482026
0.102311
0.115552
0.091104
-0.0144659
0.0292063
0.111523
0.119086
0.0791979
0.178926
0.154756
0.133689
0.130336
0.120937
0.0873134
0.0746816
0.0586986
-0.00857506
-0.0482341
-0.0332294
0.0508994
0.117574
0.140211
0.150972
0.144545
0.0956422
0.0133672
0.00153745
0.240936
0.1887
0.120747
0.111425
0.145636
0.147432
0.13641
0.0860437
0.0699313
0.052589
0.0192457
-0.0039855
0.00903004
0.03386
0.0672658
0.0208541
-0.00213059
-0.00769022
-0.00702027
0.221469
0.153227
0.1086
0.102688
0.0834405
0.020191
0.0452225
0.0263457
0.0571879
0.0694444
0.0773502
0.0734178
0.0129863
0.0157655
0.0142497
-0.0154411
0.012508
0.000313642
-0.00990328
0.0228137
0.0536512
0.0234809
0.0207
0.0127379
0.0304836
0.0310279
-0.0216963
-0.0314292
-0.0204764
0.0423347
0.0687987
0.061907
0.0328979
0.000837487
0.00968595
0.013752
0.0231347
0.0217482
-0.0098847
-0.0148095
-0.0178215
-0.020014
-0.0173109
-0.0191566
-0.0250324
-0.0237147
-0.0304599
-0.0428699
-0.0444647
-0.0388432
-0.0195424
0.011926
0.0119893
0.0121551
0.0136914
0.0104524
0.0211082
-0.00790585
-0.013129
-0.0178807
-0.0225917
-0.0274344
-0.031923
-0.0351672
-0.0374578
-0.0383652
-0.0391059
-0.040871
-0.0413893
-0.0411623
-0.0373859
-0.0102806
0.0131709
-0.010422
-0.0235632
0.0145245
-0.00674383
-0.0114643
-0.0159584
-0.0203003
-0.0244696
-0.0281937
-0.0312731
-0.0336604
-0.0354972
-0.0367403
-0.0376516
-0.038051
-0.0377705
-0.0368674
-0.0354787
-0.0270485
-0.0274715
-0.0281855
-0.0163783
-0.0059868
-0.0102239
-0.0142367
-0.0180607
-0.021703
-0.0250297
-0.0279016
-0.030265
-0.0321358
-0.0335421
-0.0344715
-0.0349007
-0.0347754
-0.0340999
-0.0329633
-0.0314717
-0.0296693
-0.0284295
-0.0205908
-0.00538509
-0.00910131
-0.0126808
-0.0161139
-0.0193652
-0.0223581
-0.025011
-0.0272713
-0.0291147
-0.0305412
-0.0315373
-0.0320787
-0.0321323
-0.0316962
-0.0308583
-0.0297683
-0.0286054
-0.0271586
-0.0207944
-0.00477714
-0.00808359
-0.0113032
-0.0143923
-0.0173174
-0.0200305
-0.0224779
-0.0246127
-0.0264021
-0.0278327
-0.0288939
-0.0295562
-0.0297843
-0.0295768
-0.029056
-0.0281107
-0.0269403
-0.0252037
-0.0188231
-0.00424436
-0.00719719
-0.0100827
-0.0128621
-0.0155051
-0.017975
-0.0202318
-0.0222366
-0.0239586
-0.0253807
-0.0264886
-0.0272568
-0.0276446
-0.0276264
-0.027267
-0.0263808
-0.0253218
-0.0215762
-0.0190299
-0.00378823
-0.00642232
-0.00900479
-0.0115041
-0.0138935
-0.0161434
-0.018222
-0.0200975
-0.0217429
-0.0231397
-0.0242719
-0.025117
-0.0256303
-0.0257851
-0.0255805
-0.0248111
-0.0231457
-0.0197016
-0.0199515
-0.00339576
-0.00574171
-0.00804916
-0.0102929
-0.0124499
-0.0144956
-0.0164043
-0.01815
-0.0197091
-0.0210641
-0.0221957
-0.0230766
-0.0236657
-0.023945
-0.0238786
-0.0233843
-0.021541
-0.0180623
-0.0202384
-0.0030538
-0.00513846
-0.00719517
-0.00920362
-0.0111442
-0.0129973
-0.0147407
-0.0163524
-0.0178114
-0.0191056
-0.0202075
-0.0210938
-0.0217043
-0.0220336
-0.0220619
-0.0217902
-0.0207062
-0.0184614
-0.0199894
-0.00275115
-0.00459769
-0.00642438
-0.00821454
-0.0099517
-0.0116189
-0.0131971
-0.0146651
-0.0160031
-0.0172087
-0.0182529
-0.0191171
-0.0196714
-0.0199944
-0.0201418
-0.0199824
-0.0198137
-0.0190762
-0.018848
-0.00247819
-0.00410649
-0.0057207
-0.00730683
-0.00885095
-0.0103383
-0.0117527
-0.0130687
-0.0142401
-0.0152983
-0.0162658
-0.0171148
-0.0176275
-0.0178977
-0.0180858
-0.0181337
-0.0182373
-0.0176491
-0.0172566
-0.00222714
-0.00365429
-0.00507088
-0.00646497
-0.00782484
-0.0091375
-0.0103889
-0.0115508
-0.0125433
-0.0133392
-0.0142521
-0.0150462
-0.0155124
-0.0156561
-0.0158712
-0.0162483
-0.0155409
-0.0138046
-0.0156837
-0.00199412
-0.00323365
-0.00446474
-0.00567692
-0.00686039
-0.00800323
-0.0090927
-0.0101066
-0.0109677
-0.011381
-0.0115521
-0.0123944
-0.0133539
-0.0134248
-0.0125846
-0.0119779
-0.0108777
-0.0117148
-0.0143573
-0.00177244
-0.00283648
-0.00389262
-0.00493177
-0.00594547
-0.00692411
-0.00785476
-0.00872083
-0.00950047
-0.0099892
-0.00766659
-0.00179031
-0.00832717
-0.0116022
-0.0108105
-0.00892562
-0.00907512
-0.0111743
-0.0132072
-0.00155499
-0.00245352
-0.00334385
-0.00421816
-0.00506952
-0.00589049
-0.00667104
-0.00739892
-0.00805565
-0.0085436
-0.0072538
0.00377738
0.00399351
-0.00800594
-0.00964457
-0.00870227
-0.0073642
-0.0107092
-0.0118256
-0.00133541
-0.00207629
-0.00280838
-0.00352543
-0.00422186
-0.00489216
-0.00552918
-0.00612262
-0.00666446
-0.00711909
-0.00706512
-0.00116427
0.00645455
0.00580531
-0.00605786
-0.00842332
-0.0087792
-0.00957847
-0.00501525
-0.00110749
-0.00169692
-0.0022775
-0.00284459
-0.00339351
-0.00392024
-0.00442017
-0.00488718
-0.00531108
-0.00569043
-0.00601916
-0.00592174
0.00323845
0.00965541
0.00776972
-0.0042106
-0.00863388
-0.00831231
7.23275e-05
-0.000866199
-0.00130984
-0.00174553
-0.00216989
-0.00257855
-0.00296839
-0.00333671
-0.00368076
-0.00399752
-0.00428348
-0.00454785
-0.00478019
-0.00453824
0.00682282
0.0130102
0.00702439
-0.00624533
-0.00793011
0.00589896
-0.000613196
-0.000915393
-0.0012112
-0.00149786
-0.00177049
-0.00202676
-0.0022653
-0.00248644
-0.00269117
-0.00287954
-0.00305392
-0.00324292
-0.00342717
-0.00365705
0.00719939
0.0120047
0.000707512
-0.00712788
0.00698945
-0.000348881
-0.000510729
-0.000667743
-0.000815601
-0.000949719
-0.00106867
-0.00117196
-0.00126188
-0.00134368
-0.00142535
-0.00151778
-0.00165367
-0.00188501
-0.00251812
-0.00399283
0.000218787
0.00581283
-0.000912926
0.00256541
)
;

boundaryField
{
    leftWall
    {
        type            fixedFluxPressure;
        gradient        uniform 0;
        value           nonuniform List<scalar> 
50
(
5231.42
5230.52
5229.39
5227.89
5223.22
3732.69
1095.82
1096.88
1096.85
1085.52
892.684
721.556
731.586
738.031
747.706
764.106
442.326
9.60727
1.36057
-0.0795045
-0.0458218
-0.0237899
-0.0126722
0.00144257
0.00913307
0.0148645
0.0189159
0.0216384
0.0233361
0.0242444
0.0245479
0.0243876
0.0238754
0.0230934
0.0221064
0.0209594
0.0196881
0.0183135
0.0168596
0.015332
0.013753
0.0121288
0.0104996
0.00886596
0.00726783
0.00573145
0.00427884
0.00289676
0.00155671
0.000348777
)
;
    }
    rightWall
    {
        type            fixedFluxPressure;
        gradient        uniform 0;
        value           nonuniform List<scalar> 
50
(
3015.9
2970.29
2393.43
1387.83
1163.02
1163.75
1158.62
1166.12
1172.69
1196.76
1202.05
1084.7
780.864
766.317
835.953
405.255
60.9889
0.00977735
0.0205014
0.0629003
0.108228
0.179457
0.187815
0.182231
0.0791979
0.00153745
-0.00702027
-0.00990328
0.0217482
0.0211082
0.0145245
-0.0163783
-0.0205908
-0.0207944
-0.0188231
-0.0190299
-0.0199515
-0.0202384
-0.0199894
-0.018848
-0.0172566
-0.0156837
-0.0143573
-0.0132072
-0.0118256
-0.00501525
7.23275e-05
0.00589896
0.00698945
0.00256541
)
;
    }
    lowerWall
    {
        type            fixedFluxPressure;
        gradient        uniform 0;
        value           nonuniform List<scalar> 
62
(
5231.42
5233.11
5236.83
5243.9
5255.68
5273.16
5296.69
5326.17
5361.15
5401.14
5445.95
5495.74
5550.56
5610.19
5673.95
5740.31
5806.51
5869.87
5928.34
5980.19
6022.94
6053.9
6070.68
6070.68
6072.6
6075.95
6080.48
6085.9
6011.85
4724.98
1400.81
1136.31
1138.05
1133.95
1125.12
2910.41
2845.56
2100.83
1206.77
1219.41
1220.88
1213.99
1196.61
2910.41
2967.51
3063.39
3175.38
3277.14
3336.71
3357.78
3336.41
3288.29
3233.46
3187.73
3157.79
3138.05
3121.9
3105.72
3084.26
3055.34
3029.04
3015.9
)
;
    }
    atmosphere
    {
        type            totalPressure;
        rho             rho;
        psi             none;
        gamma           1;
        p0              uniform 0;
        value           nonuniform List<scalar> 
46
(
0
0
0
0
0
-2.3141e-06
-1.29094e-05
-1.87294e-05
-2.00998e-05
-1.88977e-05
-1.61306e-05
-1.26418e-05
-8.98256e-06
-5.57394e-06
-2.73512e-06
-7.61034e-07
0
0
0
0
0
0
-6.39906e-06
-3.70307e-05
-6.81897e-05
-0.000105662
-0.000145344
-0.000209239
-0.000305732
-0.000393054
-0.00046873
-0.000530092
-0.000576006
-0.00060643
-0.000623295
-0.000631555
-0.000637562
-0.000648296
-0.00067431
-0.000746404
-0.00101982
-0.0015246
0
0
0
0
)
;
    }
    defaultFaces
    {
        type            empty;
    }
}


// ************************************************************************* //
