/*--------------------------------*- C++ -*----------------------------------*\
| =========                 |                                                 |
| \\      /  F ield         | OpenFOAM: The Open Source CFD Toolbox           |
|  \\    /   O peration     | Version:  2312                                  |
|   \\  /    A nd           | Website:  www.openfoam.com                      |
|    \\/     M anipulation  |                                                 |
\*---------------------------------------------------------------------------*/
FoamFile
{
    version     2.0;
    format      ascii;
    arch        "LSB;label=32;scalar=64";
    class       volVectorField;
    location    "5.65";
    object      U;
}
// * * * * * * * * * * * * * * * * * * * * * * * * * * * * * * * * * * * * * //

dimensions      [0 1 -1 0 0 0 0];

internalField   nonuniform List<vector> 
2268
(
(0.00636876 -0.00367513 0)
(0.0112617 -0.00174798 0)
(0.0163446 -0.00142827 0)
(0.0216666 -0.00137461 0)
(0.0272808 -0.0013974 0)
(0.0332261 -0.00145407 0)
(0.0395995 -0.00155877 0)
(0.0465313 -0.00169003 0)
(0.0540255 -0.00178418 0)
(0.0618293 -0.00179619 0)
(0.0695393 -0.00171362 0)
(0.0767443 -0.00153872 0)
(0.0830521 -0.00126562 0)
(0.0880531 -0.000899131 0)
(0.0913528 -0.000451558 0)
(0.0925693 9.86887e-05 0)
(0.0911518 0.000836234 0)
(0.0862673 0.00180967 0)
(0.0771767 0.00291703 0)
(0.0637842 0.00398904 0)
(0.0465753 0.00489289 0)
(0.0264712 0.00535392 0)
(0.0057109 0.00352149 0)
(0.00168861 -0.00512795 0)
(0.00703301 -0.00352094 0)
(0.0119921 -0.00368984 0)
(0.0174447 -0.00390084 0)
(0.0231416 -0.00411882 0)
(0.0291244 -0.00438311 0)
(0.0355463 -0.00475205 0)
(0.042605 -0.00521127 0)
(0.0503108 -0.00554634 0)
(0.0583774 -0.00561462 0)
(0.0663662 -0.00539558 0)
(0.0738515 -0.00490006 0)
(0.0804351 -0.00410426 0)
(0.085703 -0.00301659 0)
(0.0892835 -0.00168415 0)
(0.0908634 -6.03379e-05 0)
(0.0899172 0.00203756 0)
(0.0855215 0.00477574 0)
(0.0768727 0.00778682 0)
(0.0639366 0.0105949 0)
(0.0473333 0.0129862 0)
(0.0277796 0.0144877 0)
(0.00826514 0.0118793 0)
(0.000977219 -0.00678536 0)
(0.00596678 -0.00603714 0)
(0.0106973 -0.00619859 0)
(0.0160032 -0.00650925 0)
(0.0214921 -0.00688165 0)
(0.0272256 -0.00737269 0)
(0.0334091 -0.00804663 0)
(0.04035 -0.00891841 0)
(0.0480749 -0.00954699 0)
(0.0562345 -0.00967574 0)
(0.0643489 -0.0092905 0)
(0.0719811 -0.00840999 0)
(0.078719 -0.00700757 0)
(0.0841316 -0.00513736 0)
(0.0879006 -0.00292501 0)
(0.0898441 -0.000265522 0)
(0.0895316 0.00325561 0)
(0.0858181 0.00793216 0)
(0.077693 0.0130055 0)
(0.0652643 0.0176364 0)
(0.0492417 0.0215222 0)
(0.0297462 0.0238509 0)
(0.0106631 0.0202514 0)
(0.00162311 -0.00815916 0)
(0.00644903 -0.00807219 0)
(0.0113019 -0.00838223 0)
(0.0165834 -0.00881059 0)
(0.0219636 -0.00930053 0)
(0.0275733 -0.00998348 0)
(0.0336266 -0.0109895 0)
(0.0404793 -0.01232 0)
(0.0481502 -0.0132863 0)
(0.0562621 -0.0135184 0)
(0.0643712 -0.0130457 0)
(0.0720529 -0.0119046 0)
(0.0788389 -0.00999149 0)
(0.0842279 -0.00736499 0)
(0.0879699 -0.00430397 0)
(0.0901539 -0.000705449 0)
(0.0904733 0.00397451 0)
(0.0874463 0.0106939 0)
(0.0798357 0.0180126 0)
(0.0680187 0.0246254 0)
(0.0527694 0.0304591 0)
(0.0331904 0.0344976 0)
(0.0134767 0.0316654 0)
(0.00234069 -0.0107756 0)
(0.00708094 -0.0110899 0)
(0.0121931 -0.0116869 0)
(0.0176509 -0.0122947 0)
(0.0232764 -0.0128545 0)
(0.0293005 -0.0135897 0)
(0.0358527 -0.0147445 0)
(0.0430157 -0.0163704 0)
(0.0506154 -0.0175993 0)
(0.058368 -0.0179038 0)
(0.0659939 -0.0172464 0)
(0.073265 -0.0157241 0)
(0.0798454 -0.0131905 0)
(0.0852542 -0.00980616 0)
(0.0890336 -0.00610629 0)
(0.0909029 -0.00187054 0)
(0.0909125 0.00392859 0)
(0.088221 0.0126396 0)
(0.0813786 0.0219405 0)
(0.0706743 0.0299841 0)
(0.056482 0.0373955 0)
(0.0371362 0.0432184 0)
(0.0166325 0.0414017 0)
(0.00260193 -0.0155424 0)
(0.00750328 -0.0158054 0)
(0.0130239 -0.0161995 0)
(0.0190303 -0.0165717 0)
(0.025462 -0.016985 0)
(0.032432 -0.0175581 0)
(0.0397424 -0.0183623 0)
(0.0472487 -0.0193406 0)
(0.0545035 -0.0198928 0)
(0.0616266 -0.0198326 0)
(0.0680086 -0.0191062 0)
(0.0734097 -0.0175606 0)
(0.0774848 -0.0147714 0)
(0.0802099 -0.010688 0)
(0.0819263 -0.00602365 0)
(0.08282 -0.00102731 0)
(0.082548 0.00579843 0)
(0.0808936 0.0146944 0)
(0.0777592 0.0245453 0)
(0.0707029 0.033813 0)
(0.0580143 0.0428891 0)
(0.0391345 0.0503709 0)
(0.0183429 0.0515908 0)
(0.00265452 -0.0144092 0)
(0.00857087 -0.0145011 0)
(0.0146168 -0.0147298 0)
(0.0214303 -0.014774 0)
(0.0292573 -0.0149938 0)
(0.0357776 -0.0157952 0)
(0.0393307 -0.0181466 0)
(0.0420904 -0.0210137 0)
(0.0446598 -0.0226261 0)
(0.0520903 -0.0224221 0)
(0.0597109 -0.0208804 0)
(0.067061 -0.0186078 0)
(0.0730653 -0.015408 0)
(0.0779998 -0.011335 0)
(0.0820803 -0.00699596 0)
(0.0820881 -0.0017883 0)
(0.0753188 0.00648353 0)
(0.0691471 0.016213 0)
(0.0660417 0.0271248 0)
(0.0599738 0.0386406 0)
(0.048 0.0500087 0)
(0.0317453 0.0590718 0)
(0.0154319 0.0627918 0)
(-0.00163541 -0.0152254 0)
(-0.00194534 -0.0165273 0)
(-0.00193673 -0.0179693 0)
(0.000691158 -0.0210292 0)
(0.00829974 -0.0243102 0)
(0.0192589 -0.024505 0)
(0.0275919 -0.0229916 0)
(0.0252551 -0.0221432 0)
(0.000613348 -0.0238223 0)
(-0.0045377 -0.0271001 0)
(-0.0107903 -0.0272529 0)
(-0.0141633 -0.0245755 0)
(-0.021453 -0.0202152 0)
(-0.0288921 -0.0159171 0)
(-0.0280936 -0.00966512 0)
(-0.0253398 -0.000386423 0)
(-0.0261055 0.00895654 0)
(-0.0254636 0.0162126 0)
(-0.0231247 0.0287279 0)
(-0.0204653 0.0454437 0)
(-0.0210259 0.0616264 0)
(-0.0210992 0.072571 0)
(-0.00725356 0.0769174 0)
(-0.0144192 0.00512041 0)
(-0.0287197 0.00387449 0)
(-0.0520756 0.00567993 0)
(-0.0752689 0.00523206 0)
(-0.0915071 0.00223754 0)
(-0.0943 -0.000458353 0)
(-0.0883471 -0.0018037 0)
(-0.0774311 -0.0027131 0)
(-0.0638603 -0.00315249 0)
(-0.0507892 -0.00301994 0)
(-0.0427835 -0.00199389 0)
(-0.0405749 -0.00158936 0)
(-0.0401565 -0.00158047 0)
(-0.0392649 -0.00173437 0)
(-0.0373391 -0.00137358 0)
(-0.033619 -0.0014178 0)
(-0.0250027 -0.0028307 0)
(-0.0113805 -0.0026343 0)
(-0.00158513 -0.000562768 0)
(-0.00474678 0.0126068 0)
(-0.0199408 0.0105226 0)
(-0.0463013 0.0135323 0)
(-0.0717587 0.013294 0)
(-0.0897348 0.00631545 0)
(-0.094922 -0.00158232 0)
(-0.0897387 -0.0061243 0)
(-0.0779507 -0.00861055 0)
(-0.0632554 -0.00929032 0)
(-0.05014 -0.00734273 0)
(-0.0421509 -0.0022652 0)
(-0.0391068 0.00111801 0)
(-0.0384189 0.00153257 0)
(-0.0389473 0.00109972 0)
(-0.0384797 -0.000536599 0)
(-0.0345784 -0.0028952 0)
(-0.024057 -0.00873398 0)
(-0.0135173 -0.00835114 0)
(-0.00395802 -0.0045917 0)
(-0.018346 0.010717 0)
(-0.0466757 0.0182666 0)
(-0.0706309 0.0222744 0)
(-0.0887832 0.0206213 0)
(-0.104953 0.01142 0)
(-0.110286 -0.000101204 0)
(-0.103929 -0.00794347 0)
(-0.0916251 -0.0124794 0)
(-0.0795117 -0.0137422 0)
(-0.0703548 -0.0109842 0)
(-0.0619373 -0.00609736 0)
(-0.0524221 -0.00340074 0)
(-0.0452827 -0.00294748 0)
(-0.0414215 -0.00170287 0)
(-0.0358627 -0.00385085 0)
(-0.027661 -0.00687644 0)
(-0.0207605 -0.0117378 0)
(-0.0254652 -0.0108492 0)
(-0.0104029 -0.00974853 0)
(-0.120405 0.0547541 0)
(-0.139696 0.0461961 0)
(-0.152823 0.0401047 0)
(-0.150383 0.031808 0)
(-0.148729 0.0139721 0)
(-0.146897 -0.00340622 0)
(-0.139168 -0.0140589 0)
(-0.126816 -0.0189656 0)
(-0.116543 -0.017824 0)
(-0.10356 -0.0111868 0)
(-0.0729272 -0.00676286 0)
(-0.0284139 -0.00479123 0)
(-0.0196258 -0.00325556 0)
(-0.02759 0.000196452 0)
(-0.0113454 -0.00665396 0)
(-0.0167009 -0.0136484 0)
(-0.0385598 -0.00662319 0)
(-0.0317989 -0.00923274 0)
(0.00308072 -0.0180872 0)
(-0.121385 0.0982839 0)
(-0.132614 0.0475204 0)
(-0.137225 0.0270381 0)
(-0.10674 0.0229345 0)
(-0.071197 0.0113399 0)
(-0.080492 -0.00238877 0)
(-0.131858 -0.0166243 0)
(-0.166248 -0.0258247 0)
(-0.169225 -0.0272356 0)
(-0.130024 -0.0317914 0)
(-0.0593918 -0.0475889 0)
(0.0356051 -0.0261093 0)
(0.0292768 0.00436458 0)
(0.01087 -0.00203021 0)
(0.0491025 -0.0162441 0)
(0.0169757 0.0120471 0)
(-0.0613076 -0.00331864 0)
(0.0415131 -0.0458039 0)
(0.0702338 -0.00981709 0)
(-0.110554 0.145264 0)
(-0.111649 0.0595407 0)
(-0.129028 0.0210994 0)
(-0.106675 0.00444435 0)
(-0.0670504 -0.00671855 0)
(-0.0486879 0.0186585 0)
(-0.092354 0.0115185 0)
(-0.124262 -0.00949243 0)
(-0.126003 -0.028415 0)
(-0.095181 -0.0523782 0)
(-0.042478 -0.0878393 0)
(0.0286896 -0.0493635 0)
(0.060596 0.0100322 0)
(0.0491614 -0.0035827 0)
(0.040342 -0.0191752 0)
(0.0244989 0.0320757 0)
(0.0144499 -0.0112306 0)
(0.0386634 -0.0658628 0)
(0.0668988 0.0242822 0)
(-0.0995763 0.18799 0)
(-0.0845431 0.0710246 0)
(-0.11666 0.0199197 0)
(-0.103838 -0.0069872 0)
(-0.0777485 -0.0259813 0)
(-0.0392454 0.0200182 0)
(-0.0611909 0.0216149 0)
(-0.0840175 -0.00506295 0)
(-0.0894684 -0.0306768 0)
(-0.0766525 -0.0645805 0)
(-0.0433307 -0.112786 0)
(-0.0101004 -0.0765294 0)
(0.0567589 0.00539831 0)
(0.043734 0.00213205 0)
(0.0101492 -0.0137584 0)
(0.000817233 0.0395553 0)
(0.0172013 -0.0188592 0)
(0.0289126 -0.0712214 0)
(0.057477 0.0427197 0)
(-0.0929123 0.2263 0)
(-0.0577823 0.0798427 0)
(-0.0848942 0.0239758 0)
(-0.0849281 -0.00837053 0)
(-0.0824894 -0.035186 0)
(-0.0509473 0.0107963 0)
(-0.0464413 0.0294827 0)
(-0.0582606 0.00258572 0)
(-0.0645764 -0.0283944 0)
(-0.0596942 -0.0707308 0)
(-0.0558175 -0.11788 0)
(-0.0626702 -0.0919966 0)
(0.00789256 -0.00145996 0)
(-0.0084067 0.0113248 0)
(-0.0341773 -0.00458749 0)
(-0.0284457 0.0374704 0)
(0.0110738 -0.0349068 0)
(0.0109332 -0.0773915 0)
(0.0442833 0.0567027 0)
(-0.0109441 -0.0159817 0)
(-0.022836 -0.0190099 0)
(-0.0305908 -0.019373 0)
(-0.0316063 -0.0228262 0)
(-0.0287981 -0.0255641 0)
(-0.0250766 -0.0211394 0)
(-0.0232198 -0.00958442 0)
(-0.0239868 -0.00656658 0)
(-0.0235511 -0.0129842 0)
(-0.0243075 -0.0173978 0)
(-0.0289514 -0.0168589 0)
(-0.0348325 -0.0116914 0)
(-0.0419128 -0.00562707 0)
(-0.0490682 -0.00696476 0)
(-0.0552907 -0.0054702 0)
(-0.0614429 0.00300766 0)
(-0.0689498 0.0137492 0)
(-0.0781789 0.0222596 0)
(-0.0872751 0.0321195 0)
(-0.0928946 0.0446768 0)
(-0.0937974 0.0566831 0)
(-0.0885759 0.0609755 0)
(-0.0667931 0.0543521 0)
(-0.00840016 0.015331 0)
(-0.0185152 0.00466083 0)
(-0.0261431 -0.00937686 0)
(-0.0297831 -0.0233139 0)
(-0.0331534 -0.0329304 0)
(-0.0327271 -0.0343075 0)
(-0.0263269 -0.0289297 0)
(-0.0207738 -0.0251959 0)
(-0.0205699 -0.0242773 0)
(-0.0238902 -0.021085 0)
(-0.0307921 -0.0203297 0)
(-0.0362068 -0.0178513 0)
(-0.0387054 -0.0126718 0)
(-0.0415846 -0.00735268 0)
(-0.0575284 -0.000328691 0)
(-0.070753 0.0106839 0)
(-0.0816557 0.0205758 0)
(-0.0903543 0.0293852 0)
(-0.0959117 0.0364332 0)
(-0.0962788 0.0440494 0)
(-0.0938512 0.0508858 0)
(-0.0919571 0.0510011 0)
(-0.0911712 0.0443896 0)
(0.00471803 0.0102593 0)
(0.0160808 0.000733329 0)
(0.0252842 -0.00810045 0)
(0.0169351 -0.0128273 0)
(0.00267569 -0.0215789 0)
(-0.00275683 -0.0271456 0)
(-0.00252699 -0.0256989 0)
(-0.00264775 -0.0170213 0)
(-0.0141428 -0.0131696 0)
(-0.0364845 -0.00977782 0)
(-0.0645482 -0.00165509 0)
(-0.0875957 0.0012998 0)
(-0.105342 0.00882565 0)
(-0.119462 0.0164602 0)
(-0.127252 0.0176837 0)
(-0.1318 0.0255676 0)
(-0.133285 0.0311098 0)
(-0.133069 0.0368119 0)
(-0.130523 0.0396568 0)
(-0.125211 0.0451079 0)
(-0.118128 0.052546 0)
(-0.114259 0.0602884 0)
(-0.121417 0.0711955 0)
(0.00966313 -0.0106141 0)
(0.0273096 -0.0164273 0)
(0.0369134 -0.011886 0)
(0.0357707 -0.00272819 0)
(0.0302892 -0.0120228 0)
(0.0213737 -0.0258777 0)
(0.00561361 -0.0246854 0)
(-0.0225138 -0.00286478 0)
(-0.0605898 0.0216696 0)
(-0.104185 0.0321832 0)
(-0.135698 0.0349583 0)
(-0.151028 0.0215573 0)
(-0.155542 0.0178734 0)
(-0.156576 0.0178564 0)
(-0.158478 0.0173639 0)
(-0.160827 0.0237227 0)
(-0.161722 0.0275381 0)
(-0.161025 0.030454 0)
(-0.159719 0.0312929 0)
(-0.156526 0.0345474 0)
(-0.14698 0.0388585 0)
(-0.131514 0.0498145 0)
(-0.117883 0.0685902 0)
(0.00870363 -0.0262997 0)
(0.018595 -0.0262636 0)
(0.0205091 -0.015424 0)
(0.0215177 -0.00473104 0)
(0.0153756 -0.00778048 0)
(-0.00227261 -0.0091927 0)
(-0.0318229 0.0103372 0)
(-0.0615854 0.0470509 0)
(-0.0861388 0.0600574 0)
(-0.100287 0.0556268 0)
(-0.106247 0.040851 0)
(-0.109961 0.0222956 0)
(-0.116146 0.0153062 0)
(-0.121247 0.0158202 0)
(-0.125335 0.0189079 0)
(-0.129745 0.0255215 0)
(-0.132849 0.0294498 0)
(-0.134586 0.0305572 0)
(-0.136663 0.031243 0)
(-0.139023 0.0303395 0)
(-0.13333 0.023831 0)
(-0.119786 0.0265161 0)
(-0.100052 0.0473068 0)
(0.00507454 -0.0362946 0)
(0.0130346 -0.0264953 0)
(0.0131813 -0.0100952 0)
(0.00965987 0.00460314 0)
(-0.00564418 0.0129652 0)
(-0.0299013 0.0211928 0)
(-0.0519917 0.0402922 0)
(-0.0660338 0.066826 0)
(-0.0744995 0.0727701 0)
(-0.0799678 0.0633546 0)
(-0.0850019 0.0508002 0)
(-0.0937481 0.0390433 0)
(-0.103423 0.0324804 0)
(-0.109818 0.0298971 0)
(-0.111917 0.0306513 0)
(-0.110913 0.0334451 0)
(-0.107852 0.0356474 0)
(-0.10369 0.036302 0)
(-0.100453 0.0378253 0)
(-0.100758 0.0374168 0)
(-0.100784 0.0251274 0)
(-0.10555 0.016806 0)
(-0.102081 0.023669 0)
(0.00470106 -0.0547853 0)
(0.0197104 -0.0428875 0)
(0.0284576 -0.0191285 0)
(0.0329989 0.0100259 0)
(0.0216367 0.0306361 0)
(-0.0094223 0.0369516 0)
(-0.0434613 0.0417709 0)
(-0.0676855 0.0468707 0)
(-0.07928 0.0435237 0)
(-0.0862729 0.0332673 0)
(-0.092593 0.0250325 0)
(-0.099162 0.0184572 0)
(-0.10486 0.0127401 0)
(-0.106061 0.00720625 0)
(-0.102055 0.00559606 0)
(-0.0930705 0.00704046 0)
(-0.0802319 0.0110057 0)
(-0.0695955 0.0145754 0)
(-0.0613104 0.0201693 0)
(-0.0560021 0.027596 0)
(-0.0524775 0.0280928 0)
(-0.0575508 0.0251029 0)
(-0.0656159 0.0199502 0)
(-0.000266525 -0.0479949 0)
(0.0073081 -0.0332006 0)
(0.00929392 -0.00866424 0)
(0.0192281 0.0208092 0)
(0.0282324 0.0467402 0)
(0.0240161 0.0648824 0)
(0.0054403 0.0822934 0)
(-0.0176631 0.0864633 0)
(-0.0280369 0.0804658 0)
(-0.0395514 0.0733614 0)
(-0.0743015 0.0632826 0)
(-0.124393 0.0556253 0)
(-0.159045 0.0428742 0)
(-0.175616 0.0295699 0)
(-0.172813 0.0191381 0)
(-0.154934 0.013358 0)
(-0.127902 0.0123081 0)
(-0.10099 0.0148495 0)
(-0.0799353 0.0196253 0)
(-0.0586872 0.0219089 0)
(-0.0405689 0.0237254 0)
(-0.0292801 0.0238845 0)
(-0.0288917 0.0210791 0)
(0.0162735 -0.037375 0)
(0.0597091 -0.0344158 0)
(0.100846 -0.0247308 0)
(0.148508 -0.00520419 0)
(0.194394 0.0339275 0)
(0.243006 0.0859366 0)
(0.18645 0.146397 0)
(0.0413316 0.16612 0)
(-0.0637769 0.134668 0)
(-0.0925375 0.140353 0)
(-0.0953379 0.14675 0)
(-0.0973814 0.133658 0)
(-0.107553 0.0869759 0)
(-0.118731 0.0451535 0)
(-0.104572 -0.00155595 0)
(-0.0890831 -0.0127745 0)
(-0.0770069 -0.0185587 0)
(-0.145141 -0.00950878 0)
(-0.19386 -0.000218907 0)
(-0.254425 0.00219178 0)
(-0.251703 0.00895975 0)
(-0.209975 0.0144868 0)
(-0.169402 0.0277589 0)
(0.027287 -0.149029 0)
(0.0780814 -0.134055 0)
(0.100577 -0.106255 0)
(0.0149871 -0.0927825 0)
(0.0497807 -0.0576757 0)
(0.0635447 0.145407 0)
(-0.0318831 0.258957 0)
(-0.00944329 0.24462 0)
(0.0196786 0.121524 0)
(0.015937 0.0735937 0)
(0.0195222 0.062771 0)
(0.0195219 0.064064 0)
(0.0310289 0.0560554 0)
(0.0420483 0.0275509 0)
(0.0355954 -0.00825226 0)
(0.0215161 -0.0151232 0)
(0.00732212 0.00113048 0)
(0.00243386 0.0959467 0)
(0.0240014 0.0568972 0)
(0.00433817 0.0974613 0)
(-0.00782174 0.0305054 0)
(0.029627 -0.0904964 0)
(0.0847222 -0.0533831 0)
(0.0197399 -0.189601 0)
(-0.00339126 -0.146704 0)
(-0.0101457 0.0264115 0)
(-0.0424292 -0.0428631 0)
(-0.116078 -0.0258148 0)
(-0.118076 0.154268 0)
(-0.0759908 0.220314 0)
(-0.0111721 0.152003 0)
(0.0305342 0.164433 0)
(0.0374861 0.135405 0)
(0.0468014 0.107397 0)
(0.0588348 0.0876048 0)
(0.0738197 0.0651259 0)
(0.0815127 0.0423378 0)
(0.0745117 0.0203961 0)
(0.0588348 0.00761795 0)
(0.0408759 0.00964157 0)
(0.0411744 0.0439011 0)
(0.0457759 0.0509593 0)
(0.0767698 0.038047 0)
(0.157055 -0.0316406 0)
(0.191143 -0.114034 0)
(0.204645 -0.0709556 0)
(-0.0397375 -0.199756 0)
(-0.096 -0.0835665 0)
(-0.099808 -0.0628172 0)
(-0.0958218 0.040372 0)
(-0.122302 0.0607881 0)
(-0.11243 0.116491 0)
(-0.0637035 0.160337 0)
(-0.0169629 0.14167 0)
(0.00931585 0.104797 0)
(0.0355729 0.0739214 0)
(0.0509899 0.0560206 0)
(0.0608073 0.0450258 0)
(0.0675311 0.0354279 0)
(0.0681255 0.0304061 0)
(0.0608265 0.0247426 0)
(0.0501775 0.016349 0)
(0.037271 0.0215018 0)
(0.027903 0.0490678 0)
(0.0295117 0.0394106 0)
(0.0704519 -0.0414404 0)
(0.124699 -0.0984045 0)
(0.15782 -0.112239 0)
(0.172617 -0.0842786 0)
(-0.0366127 -0.0430277 0)
(-0.0733764 -0.0240007 0)
(-0.0970348 0.00215413 0)
(-0.102787 0.0188016 0)
(-0.0948673 0.0437971 0)
(-0.0812148 0.0805891 0)
(-0.0460928 0.10175 0)
(-0.0112341 0.0921792 0)
(0.0115315 0.0868569 0)
(0.0271708 0.076559 0)
(0.0358603 0.0644431 0)
(0.0409071 0.0544806 0)
(0.0427268 0.0467436 0)
(0.0411543 0.0418548 0)
(0.0370171 0.0343161 0)
(0.0300149 0.0266954 0)
(0.015384 0.0361215 0)
(0.00349212 0.0523286 0)
(0.0220711 0.00730591 0)
(0.0603783 -0.0836715 0)
(0.0836586 -0.131754 0)
(0.0985415 -0.127936 0)
(0.100805 -0.0965892 0)
(-0.0161216 -0.0541052 0)
(-0.0366114 -0.032957 0)
(-0.0494752 -0.0225866 0)
(-0.0586287 0.00749196 0)
(-0.0580494 0.0324416 0)
(-0.0485844 0.0564397 0)
(-0.0283608 0.0716259 0)
(-0.00912976 0.0723476 0)
(0.00526241 0.0683558 0)
(0.0165452 0.0607207 0)
(0.0236227 0.052509 0)
(0.027035 0.0468198 0)
(0.0284457 0.0435915 0)
(0.0289996 0.0418741 0)
(0.027767 0.0385605 0)
(0.0212137 0.0382527 0)
(0.00917072 0.0478836 0)
(0.00947364 0.0441564 0)
(0.0307574 -0.0203688 0)
(0.0420318 -0.0980272 0)
(0.0336447 -0.136095 0)
(0.0225329 -0.117104 0)
(0.00258574 -0.0757056 0)
(-0.0101302 -0.00900921 0)
(-0.0236207 -0.00137131 0)
(-0.0329588 0.00597338 0)
(-0.0389361 0.0189014 0)
(-0.0377748 0.0340733 0)
(-0.0321448 0.0481774 0)
(-0.0209767 0.0572376 0)
(-0.0091799 0.059093 0)
(0.00127812 0.05748 0)
(0.0100461 0.0533887 0)
(0.0161046 0.0485956 0)
(0.0195987 0.0449715 0)
(0.021714 0.0431043 0)
(0.0232449 0.0421562 0)
(0.0231677 0.0415256 0)
(0.0198501 0.0452673 0)
(0.0167508 0.0494911 0)
(0.0239492 0.0335265 0)
(0.0308028 -0.022674 0)
(0.0158443 -0.0861361 0)
(-0.0184655 -0.110386 0)
(-0.047183 -0.0875278 0)
(-0.0691072 -0.053479 0)
(-0.0056706 -0.00251955 0)
(-0.0147958 0.0026792 0)
(-0.0218511 0.00988896 0)
(-0.0268435 0.0213275 0)
(-0.0270454 0.0318743 0)
(-0.0232449 0.0412155 0)
(-0.0157373 0.0472878 0)
(-0.00728849 0.0494308 0)
(0.000666533 0.0489416 0)
(0.00752341 0.0468159 0)
(0.0126356 0.0441547 0)
(0.0160946 0.0420928 0)
(0.0185494 0.0411194 0)
(0.0204983 0.0411025 0)
(0.0213987 0.0420926 0)
(0.0214003 0.0460369 0)
(0.0226563 0.0464541 0)
(0.025889 0.0308854 0)
(0.0190354 -0.0109291 0)
(-0.0110478 -0.0574915 0)
(-0.0509888 -0.0755932 0)
(-0.0761797 -0.0651766 0)
(-0.0927942 -0.0346924 0)
(-0.00402504 0.0070594 0)
(-0.0108801 0.00898335 0)
(-0.0160705 0.0142738 0)
(-0.0194928 0.0221098 0)
(-0.0195824 0.0295985 0)
(-0.0166819 0.0360249 0)
(-0.0112174 0.0401445 0)
(-0.00486647 0.0419341 0)
(0.0012773 0.0420749 0)
(0.00681623 0.041196 0)
(0.0112829 0.040012 0)
(0.014709 0.0391535 0)
(0.0174115 0.0389869 0)
(0.0196654 0.0395814 0)
(0.0214967 0.0410581 0)
(0.0233948 0.0440022 0)
(0.0257189 0.0448148 0)
(0.0259362 0.0365363 0)
(0.0142593 0.0101299 0)
(-0.017965 -0.0237548 0)
(-0.0558037 -0.044931 0)
(-0.0768758 -0.0496641 0)
(-0.0851702 -0.0214756 0)
(-0.00302276 0.0132592 0)
(-0.00829256 0.0139022 0)
(-0.0123315 0.0178789 0)
(-0.0146135 0.0231689 0)
(-0.014511 0.02812 0)
(-0.0122184 0.0321286 0)
(-0.0080575 0.0348024 0)
(-0.00307999 0.0361194 0)
(0.00184492 0.0366045 0)
(0.00647725 0.0364994 0)
(0.0104848 0.0361932 0)
(0.0138577 0.0360459 0)
(0.016792 0.0363122 0)
(0.0194838 0.0371337 0)
(0.0221009 0.0386508 0)
(0.0249627 0.0409602 0)
(0.0282386 0.0429847 0)
(0.0299569 0.0421382 0)
(0.0238627 0.0319841 0)
(-0.000824964 0.00888878 0)
(-0.0369928 -0.0155124 0)
(-0.063373 -0.0335119 0)
(-0.0724083 -0.0174605 0)
(-0.0024299 0.0184651 0)
(-0.00667426 0.018169 0)
(-0.0100688 0.0208399 0)
(-0.0116699 0.0240417 0)
(-0.0115019 0.0269005 0)
(-0.009616 0.0290615 0)
(-0.00625164 0.0306375 0)
(-0.00218501 0.0314861 0)
(0.00198938 0.032036 0)
(0.0060401 0.0323468 0)
(0.00974204 0.0325476 0)
(0.0130733 0.0328419 0)
(0.0161564 0.0333626 0)
(0.0191688 0.0342232 0)
(0.0222721 0.0355243 0)
(0.0257324 0.037368 0)
(0.0297247 0.0395868 0)
(0.0336324 0.0417228 0)
(0.0349179 0.0412851 0)
(0.0286017 0.0336743 0)
(0.00670152 0.0188098 0)
(-0.0282558 -0.00939685 0)
(-0.0495307 -0.0154869 0)
(-0.00213142 0.0228678 0)
(-0.00576324 0.021867 0)
(-0.00884673 0.0232778 0)
(-0.0101283 0.0247305 0)
(-0.00997903 0.0258387 0)
(-0.0082902 0.0265697 0)
(-0.00537784 0.0271402 0)
(-0.00190011 0.0275523 0)
(0.00182965 0.0280458 0)
(0.00552089 0.028548 0)
(0.0090117 0.0290561 0)
(0.012273 0.0295992 0)
(0.0153909 0.0302303 0)
(0.0185054 0.0310084 0)
(0.0218159 0.0320063 0)
(0.0255728 0.0333534 0)
(0.0299863 0.035112 0)
(0.0350262 0.0373946 0)
(0.0401872 0.0393918 0)
(0.0436487 0.0379849 0)
(0.0418782 0.034908 0)
(0.0316155 0.025709 0)
(0.00631352 0.00655056 0)
(-0.00200367 0.0268201 0)
(-0.00535222 0.0252977 0)
(-0.00832216 0.0254355 0)
(-0.00946376 0.0253382 0)
(-0.00930565 0.0248991 0)
(-0.00772085 0.0243949 0)
(-0.00508182 0.024018 0)
(-0.00190725 0.0240224 0)
(0.00153852 0.024418 0)
(0.0049949 0.0250279 0)
(0.00830655 0.0257213 0)
(0.0114426 0.0264148 0)
(0.0144813 0.0270822 0)
(0.0175457 0.0277277 0)
(0.0208249 0.0284138 0)
(0.0245464 0.0292155 0)
(0.0289126 0.0302527 0)
(0.0341206 0.0317307 0)
(0.040343 0.0334524 0)
(0.0464479 0.033287 0)
(0.0510244 0.0321467 0)
(0.0533846 0.0297546 0)
(0.0525948 0.0274357 0)
(-0.0019704 0.0305737 0)
(-0.00525139 0.0285998 0)
(-0.00820773 0.0274889 0)
(-0.00928479 0.025916 0)
(-0.00912708 0.0240415 0)
(-0.00756876 0.0223187 0)
(-0.00509661 0.0211226 0)
(-0.0020722 0.0207343 0)
(0.00120865 0.0210204 0)
(0.00447617 0.0217079 0)
(0.00760862 0.0225549 0)
(0.0105861 0.0233796 0)
(0.0134577 0.024074 0)
(0.0163375 0.0246081 0)
(0.0193935 0.0249978 0)
(0.022807 0.025293 0)
(0.0267551 0.0255916 0)
(0.0315089 0.0260875 0)
(0.0373747 0.0268717 0)
(0.0437786 0.0270899 0)
(0.049863 0.0263606 0)
(0.0554771 0.0247018 0)
(0.060287 0.0212496 0)
(-0.00201428 0.0342969 0)
(-0.00532666 0.0319061 0)
(-0.00829759 0.0295284 0)
(-0.00936538 0.0264371 0)
(-0.00921237 0.0231665 0)
(-0.00767639 0.02028 0)
(-0.00529494 0.0183492 0)
(-0.00236708 0.0176004 0)
(0.000796106 0.017787 0)
(0.00393353 0.0185554 0)
(0.00691194 0.0195693 0)
(0.00969698 0.0205417 0)
(0.0123492 0.0212881 0)
(0.014966 0.0217558 0)
(0.0176809 0.0219252 0)
(0.0206396 0.0218291 0)
(0.0239787 0.0215361 0)
(0.0279215 0.0211881 0)
(0.0327184 0.0209305 0)
(0.0384211 0.0206826 0)
(0.0445018 0.0198776 0)
(0.0505343 0.0183062 0)
(0.0565487 0.016746 0)
(-0.0021081 0.0380866 0)
(-0.00553444 0.0352785 0)
(-0.00858009 0.0315672 0)
(-0.00965683 0.0269945 0)
(-0.00942779 0.0223045 0)
(-0.00792523 0.0182952 0)
(-0.00564512 0.0156746 0)
(-0.00281795 0.0145654 0)
(0.0002552 0.0146731 0)
(0.0032968 0.0155585 0)
(0.00615406 0.0167583 0)
(0.00876648 0.0179105 0)
(0.0111922 0.0187728 0)
(0.0135155 0.0192336 0)
(0.0158477 0.0192762 0)
(0.0183156 0.0189219 0)
(0.0210223 0.0182213 0)
(0.0240942 0.0172663 0)
(0.0277047 0.0161797 0)
(0.0320579 0.0150701 0)
(0.0371464 0.0138541 0)
(0.0425005 0.0122181 0)
(0.0481007 0.0109735 0)
(-0.00224562 0.0420187 0)
(-0.00583357 0.0387588 0)
(-0.00896913 0.0336131 0)
(-0.0100994 0.0275447 0)
(-0.00984868 0.0215128 0)
(-0.00838368 0.016434 0)
(-0.00619743 0.013093 0)
(-0.00349739 0.0116134 0)
(-0.000508333 0.011639 0)
(0.00246726 0.0126486 0)
(0.00524466 0.0140765 0)
(0.00774976 0.0154633 0)
(0.00999313 0.0165107 0)
(0.0120447 0.0170483 0)
(0.0140109 0.0170603 0)
(0.016004 0.016575 0)
(0.0181074 0.0156441 0)
(0.0204159 0.0143325 0)
(0.0230379 0.0127467 0)
(0.0261073 0.0109827 0)
(0.0296755 0.00911768 0)
(0.0336911 0.00724442 0)
(0.038106 0.00568666 0)
(-0.00239932 0.0461559 0)
(-0.00619239 0.0423937 0)
(-0.00945943 0.0357334 0)
(-0.0106631 0.0280937 0)
(-0.0104327 0.0206805 0)
(-0.00908691 0.0146609 0)
(-0.00704877 0.0107079 0)
(-0.00446374 0.00876932 0)
(-0.0015889 0.00864937 0)
(0.00134235 0.00978398 0)
(0.00410176 0.0114563 0)
(0.00656895 0.0131338 0)
(0.00871143 0.0144386 0)
(0.0105647 0.0151554 0)
(0.0122286 0.015239 0)
(0.0138166 0.0147339 0)
(0.0154178 0.0137085 0)
(0.0171036 0.0122377 0)
(0.0189277 0.0103954 0)
(0.0209707 0.00827036 0)
(0.0233121 0.00596773 0)
(0.0259818 0.00369462 0)
(0.0289334 0.00177765 0)
(-0.00257879 0.0505514 0)
(-0.00663262 0.0462035 0)
(-0.0100707 0.0379747 0)
(-0.0113562 0.0286992 0)
(-0.0111688 0.0199189 0)
(-0.0100115 0.0130625 0)
(-0.0082084 0.00848863 0)
(-0.00579314 0.00610522 0)
(-0.00302537 0.00575674 0)
(-0.000131682 0.00691132 0)
(0.00263248 0.00882018 0)
(0.00513668 0.0108209 0)
(0.00728034 0.0124639 0)
(0.00904234 0.0134685 0)
(0.0105004 0.0137355 0)
(0.0117737 0.013306 0)
(0.0129668 0.0122688 0)
(0.0141519 0.010732 0)
(0.0153784 0.00877243 0)
(0.0167142 0.00649814 0)
(0.0181864 0.00400227 0)
(0.0198246 0.00145238 0)
(0.0217087 -0.000842942 0)
(-0.00279388 0.0552638 0)
(-0.00716447 0.0502635 0)
(-0.0108338 0.0403835 0)
(-0.0122152 0.0293616 0)
(-0.0120735 0.0192474 0)
(-0.0111622 0.0117458 0)
(-0.00962723 0.00647893 0)
(-0.00736377 0.00358448 0)
(-0.00474037 0.00299627 0)
(-0.00197495 0.00409176 0)
(0.000806342 0.00612507 0)
(0.00340326 0.00843935 0)
(0.00563696 0.010478 0)
(0.00742695 0.0118722 0)
(0.00879897 0.0124443 0)
(0.00986332 0.0121954 0)
(0.0107536 0.0112413 0)
(0.0115555 0.00971535 0)
(0.0123269 0.00772698 0)
(0.0131413 0.00538434 0)
(0.0140285 0.0027704 0)
(0.0150101 2.98165e-05 0)
(0.0162472 -0.00257197 0)
(-0.00303672 0.0603611 0)
(-0.00778633 0.0546317 0)
(-0.0117263 0.042977 0)
(-0.0131656 0.0300226 0)
(-0.0131872 0.0187549 0)
(-0.0125991 0.0107519 0)
(-0.0112069 0.00462635 0)
(-0.00905346 0.00120019 0)
(-0.00657099 0.00034837 0)
(-0.00393659 0.00135355 0)
(-0.0012502 0.00342854 0)
(0.00138446 0.0059632 0)
(0.00375958 0.00839392 0)
(0.00568707 0.0102472 0)
(0.00710192 0.0112377 0)
(0.00808146 0.0112922 0)
(0.00876992 0.0105198 0)
(0.009281 0.00907517 0)
(0.00970629 0.00711747 0)
(0.0101348 0.00474645 0)
(0.0106006 0.00204494 0)
(0.0111355 -0.000867783 0)
(0.0119344 -0.00376092 0)
(-0.00327869 0.0658672 0)
(-0.00839016 0.0593108 0)
(-0.0125153 0.045721 0)
(-0.0141178 0.0307879 0)
(-0.0145845 0.0186779 0)
(-0.0142323 0.00989233 0)
(-0.0127653 0.00280894 0)
(-0.0106343 -0.00109204 0)
(-0.00829992 -0.00214337 0)
(-0.00585622 -0.00125681 0)
(-0.00331987 0.000775793 0)
(-0.000749266 0.00340601 0)
(0.00170962 0.00615535 0)
(0.00381928 0.0084952 0)
(0.00538796 0.00999534 0)
(0.00640138 0.0104759 0)
(0.00699115 0.0099878 0)
(0.00731596 0.0087118 0)
(0.00748748 0.00683439 0)
(0.00760436 0.0044742 0)
(0.00775304 0.00170473 0)
(0.0079571 -0.0013832 0)
(0.00839336 -0.00457582 0)
(-0.00346882 0.0717406 0)
(-0.00885725 0.0642399 0)
(-0.0130595 0.0485696 0)
(-0.014969 0.032026 0)
(-0.0160133 0.0190887 0)
(-0.015695 0.0088867 0)
(-0.013994 0.000909839 0)
(-0.0118626 -0.00331294 0)
(-0.00969528 -0.00446886 0)
(-0.00749638 -0.00366531 0)
(-0.00520844 -0.00172097 0)
(-0.00280963 0.000886247 0)
(-0.000381785 0.00379878 0)
(0.00186093 0.00655568 0)
(0.00363633 0.00861693 0)
(0.00479772 0.00963217 0)
(0.00540528 0.00954817 0)
(0.00563376 0.00853188 0)
(0.00563518 0.00678761 0)
(0.00553413 0.0044741 0)
(0.0054175 0.00166875 0)
(0.00532808 -0.00157499 0)
(0.00548215 -0.00504548 0)
(-0.00352311 0.0778865 0)
(-0.0090929 0.0693726 0)
(-0.0133941 0.0515255 0)
(-0.0156677 0.0337879 0)
(-0.0170107 0.0197113 0)
(-0.0164795 0.00764659 0)
(-0.0145847 -0.00108603 0)
(-0.0125002 -0.00543858 0)
(-0.0105471 -0.00656535 0)
(-0.00865761 -0.00578879 0)
(-0.00671066 -0.00395043 0)
(-0.00461156 -0.00145537 0)
(-0.00236149 0.00145587 0)
(-0.000109174 0.00445511 0)
(0.00185459 0.00703073 0)
(0.00324121 0.00865907 0)
(0.00397992 0.00909963 0)
(0.00421062 0.00844078 0)
(0.00412066 0.00690312 0)
(0.00386954 0.00468157 0)
(0.00355998 0.00186238 0)
(0.00323298 -0.00149486 0)
(0.00313099 -0.00518337 0)
(-0.00338432 0.0840306 0)
(-0.00897074 0.0746335 0)
(-0.0134127 0.0546656 0)
(-0.0159824 0.0358496 0)
(-0.0172545 0.0201747 0)
(-0.0163441 0.00621766 0)
(-0.014345 -0.00313132 0)
(-0.0123827 -0.00741456 0)
(-0.010712 -0.00837036 0)
(-0.00919898 -0.0075446 0)
(-0.00767504 -0.00580289 0)
(-0.00598759 -0.00348764 0)
(-0.00406383 -0.000722348 0)
(-0.00196609 0.00231559 0)
(7.48604e-05 0.00523877 0)
(0.00170871 0.00747088 0)
(0.00267695 0.00853991 0)
(0.00301167 0.00835354 0)
(0.00291681 0.00710995 0)
(0.00258563 0.00503487 0)
(0.00213748 0.00224257 0)
(0.00163421 -0.00118365 0)
(0.00132843 -0.00505193 0)
(-0.00305279 0.089884 0)
(-0.00845204 0.0798635 0)
(-0.0129683 0.0580092 0)
(-0.0156378 0.0379405 0)
(-0.0166051 0.0203245 0)
(-0.0152514 0.00461378 0)
(-0.0131995 -0.00516541 0)
(-0.0114432 -0.00916721 0)
(-0.0101362 -0.00981187 0)
(-0.00906192 -0.00885927 0)
(-0.00802038 -0.00718759 0)
(-0.00682618 -0.00508599 0)
(-0.00535258 -0.0025793 0)
(-0.00357264 0.000298783 0)
(-0.00161788 0.00333549 0)
(0.000182558 0.00602862 0)
(0.00144212 0.00776199 0)
(0.00199112 0.00817038 0)
(0.0019771 0.0073233 0)
(0.0016265 0.00546396 0)
(0.00111342 0.00276517 0)
(0.00048676 -0.000704487 0)
(8.23368e-06 -0.0046983 0)
(-0.00254731 0.0951863 0)
(-0.00752939 0.0848957 0)
(-0.0118562 0.0614212 0)
(-0.0144128 0.0398587 0)
(-0.0149712 0.0200822 0)
(-0.0131258 0.00274159 0)
(-0.0111654 -0.00710737 0)
(-0.00972316 -0.0105947 0)
(-0.00887201 -0.0108103 0)
(-0.00828554 -0.00967708 0)
(-0.00775173 -0.0080495 0)
(-0.00708193 -0.00616677 0)
(-0.00612711 -0.00398379 0)
(-0.00479804 -0.00141862 0)
(-0.00312223 0.00147499 0)
(-0.0013124 0.0043856 0)
(0.000212604 0.00669633 0)
(0.00107286 0.00778854 0)
(0.00124332 0.0074593 0)
(0.00096384 0.00590941 0)
(0.000419898 0.00335125 0)
(-0.000277513 -0.000102122 0)
(-0.000848402 -0.00417511 0)
(-0.00187931 0.0996535 0)
(-0.00622838 0.0895069 0)
(-0.0101168 0.0645765 0)
(-0.0123112 0.0414511 0)
(-0.0122671 0.0193926 0)
(-0.00993913 0.000680139 0)
(-0.00831983 -0.00876771 0)
(-0.007386 -0.0115535 0)
(-0.00708665 -0.0112879 0)
(-0.0070109 -0.00997209 0)
(-0.00696594 -0.00838317 0)
(-0.00679251 -0.00670728 0)
(-0.00636041 -0.00486342 0)
(-0.00554905 -0.0027032 0)
(-0.00430147 -0.000150117 0)
(-0.00269573 0.00268126 0)
(-0.00104563 0.00534253 0)