/*--------------------------------*- C++ -*----------------------------------*\
| =========                 |                                                 |
| \\      /  F ield         | OpenFOAM: The Open Source CFD Toolbox           |
|  \\    /   O peration     | Version:  2312                                  |
|   \\  /    A nd           | Website:  www.openfoam.com                      |
|    \\/     M anipulation  |                                                 |
\*---------------------------------------------------------------------------*/
FoamFile
{
    version     2.0;
    format      ascii;
    arch        "LSB;label=32;scalar=64";
    class       volScalarField;
    location    "4.35";
    object      alpha.water_0;
}
// * * * * * * * * * * * * * * * * * * * * * * * * * * * * * * * * * * * * * //

dimensions      [0 0 0 0 0 0 0];

internalField   nonuniform List<scalar> 
2268
(
3.61284e-07
3.06731e-07
9.17314e-08
9.69635e-09
3.30648e-09
9.12925e-10
2.70015e-10
1.18919e-10
7.4413e-11
6.22887e-11
5.89669e-11
5.95184e-11
6.46292e-11
7.57802e-11
9.40864e-11
1.224e-10
1.64236e-10
2.2526e-10
3.15211e-10
6.09921e-10
1.06643e-09
1.37228e-09
1.45907e-09
3.14034e-07
1.87699e-07
4.50295e-08
4.39795e-09
1.55122e-10
1.82551e-10
1.47475e-10
1.30013e-10
1.32844e-10
1.3521e-10
1.18746e-10
1.00407e-10
1.0062e-10
1.15139e-10
1.48133e-10
1.9734e-10
3.01672e-10
5.13697e-10
6.56722e-10
9.66859e-10
1.47134e-09
1.57473e-09
1.53814e-09
9.16136e-08
4.34611e-08
7.57749e-09
6.80625e-11
1.53065e-10
2.44779e-10
3.97637e-10
6.33833e-10
7.38225e-10
6.45745e-10
3.434e-10
1.49469e-10
2.62469e-10
2.01807e-10
3.73293e-10
3.38541e-10
1.0008e-09
1.41093e-09
1.18405e-09
9.97269e-10
1.3236e-09
9.9243e-10
7.47545e-10
3.8355e-08
1.87308e-08
3.42986e-09
6.80523e-11
1.44607e-10
6.65959e-10
1.75904e-09
1.93678e-09
1.77901e-09
1.19399e-09
4.32537e-10
8.90082e-10
2.503e-08
5.34746e-09
1.61389e-09
7.81859e-11
4.87281e-11
5.21674e-11
3.33204e-11
3.39517e-11
3.1986e-11
3.52645e-11
3.46355e-11
5.23824e-09
1.42075e-09
6.60692e-10
9.72819e-11
6.46721e-11
1.13307e-10
1.63017e-10
1.72206e-10
5.69412e-11
-3.57553e-12
-1.58112e-12
-3.66911e-12
-2.00884e-08
-2.9658e-09
-1.3247e-11
3.18966e-23
8.25374e-23
2.73959e-13
0.00128894
0.0119931
0.0490695
0.0543641
0.0545384
-6.75424e-12
-7.15412e-13
-2.50876e-13
-5.30022e-14
-1.1994e-13
-3.52531e-14
-2.0285e-16
9.9396e-23
9.93345e-23
0.0223338
0.0879783
0.168137
0.260396
0.365564
0.472481
0.558792
0.560107
0.55127
0.565607
0.578822
0.600892
0.680325
0.73541
0.108718
0.116377
0.12433
0.135963
0.158518
0.199316
0.258448
0.348843
0.490037
0.648893
0.773164
0.868153
0.938628
0.970702
0.972347
0.973189
0.963713
0.959113
0.957747
0.927713
0.896293
0.897884
0.927277
0.803014
0.810418
0.816893
0.830056
0.854634
0.874667
0.906407
0.963132
0.995995
0.999616
0.999685
0.999716
0.999716
0.999716
0.981455
0.969673
0.969545
0.98288
0.984327
0.984326
0.975031
0.928152
0.927363
0.0136154
0.0127701
0.00724844
0.00564395
0.00758455
0.011272
0.0119279
0.011781
0.0123584
0.0132114
0.0132134
0.012368
0.0077893
0.00529588
0.00494222
0.00564032
0.00439856
0.00525486
0.0054237
0.038284
0.00158936
0.00136005
0.0011141
0.000700109
0.000500834
0.000502418
0.000500834
0.000515189
0.0020515
0.00234107
0.00106745
0.00106002
0.00106028
0.00105671
0.00106087
0.00106062
0.00159726
0.00260295
0.0494807
0.0241437
0.0374131
0.0290721
0.05879
0.0897008
0.0954912
0.0721509
0.0311361
0.0033094
0.0165548
0.0352413
0.0270577
0.0324607
0.0416031
0.0312211
0.020945
0.0077341
0.00373664
0.389327
0.580589
0.688752
0.728984
0.796521
0.844566
0.86783
0.860001
0.412584
0.32581
0.390042
0.444385
0.415717
0.423779
0.501127
0.462064
0.430029
0.402164
0.350334
0.732695
0.978898
0.978744
0.947386
0.934527
0.920623
0.908195
0.921234
0.934051
0.735941
0.638112
0.887197
0.620664
0.728496
0.915438
0.894183
0.916533
0.916526
0.642752
0.930816
0.991015
0.99256
0.992565
0.991644
0.929898
0.895508
0.899975
0.947288
0.886826
0.847246
0.957119
0.85831
0.851679
0.915161
0.913849
0.916525
0.916568
0.865588
0.960685
0.965126
0.96307
0.992556
0.992555
0.963479
0.895421
0.959959
0.969172
0.973399
0.973409
0.973408
0.973406
0.973412
0.855651
0.859441
0.885261
0.916563
0.916599
0.963354
0.846349
0.898288
0.987258
0.992178
0.909757
0.903029
0.973391
0.973403
0.973405
0.973408
0.973404
0.973407
0.973405
0.776219
0.848335
0.908282
0.916649
0.916491
0.998969
0.998931
0.998384
0.998579
0.999233
0.999625
0.999716
0.999716
0.999716
0.999716
0.999716
0.999716
0.999716
0.999716
0.999716
0.984323
0.969651
0.978723
0.984323
0.984343
0.98429
0.984277
0.981719
0.998997
0.999715
0.999715
0.999716
0.999716
0.999716
0.999716
0.999716
0.999676
0.999715
0.999716
0.999716
0.999645
0.999716
0.999154
0.998088
0.988537
0.973521
0.973453
0.966154
0.953715
0.927956
0.907193
0.967183
0.98703
0.98864
0.980132
0.961961
0.960592
0.965826
0.975876
0.978379
0.978055
0.974769
0.948272
0.945309
0.912761
0.846445
0.763953
0.655955
0.436286
0.295115
0.276085
0.246494
0.219334
0.181236
0.492298
0.488164
0.450845
0.378168
0.313931
0.33187
0.367327
0.45389
0.515528
0.505323
0.425359
0.30247
0.167532
0.110379
0.130134
0.109008
0.0250953
0.000787228
-1.56863e-08
-4.07891e-19
4.54533e-20
-2.69062e-20
1.76668e-20
2.87953e-10
2.38666e-11
2.63828e-10
1.44256e-10
1.29192e-10
3.82983e-11
7.14209e-18
2.50254e-17
1.52764e-17
0.00453582
0.000562578
-4.68771e-07
-8.60267e-07
-1.52054e-07
3.36418e-16
2.32116e-13
7.84324e-10
4.03187e-05
6.74584e-06
3.90022e-19
1.49212e-10
4.42029e-06
0.000207267
5.58471e-06
1.76621e-05
8.27465e-05
0.000131904
0.000103011
5.20428e-05
1.37026e-17
8.27563e-07
3.13322e-06
2.26277e-06
0.000113068
0.000229065
0.000220602
5.75367e-05
-1.19095e-21
1.61035e-13
3.97585e-12
0.000201137
0.000318102
0.000177274
5.42522e-06
2.97322e-06
5.12178e-05
0.000379798
0.000445742
0.000596613
0.000596559
0.000573405
0.000554974
0.00112999
0.00218657
0.00342466
0.00396037
0.00444205
0.00534667
0.00564692
0.00513928
0.00324437
0.00154741
0.000741088
0.000337036
0.000539687
0.000475701
0.000352163
0.000267735
0.000123375
0.000666404
0.000248716
1.11465e-05
1.1182e-05
5.96691e-05
0.000922725
0.00490763
0.00716487
0.00712933
0.00547242
0.00507578
0.00553972
0.00608447
0.00647539
0.00648288
0.00647539
0.00388116
1.64384e-05
0.000485677
0.00775866
0.0167362
0.0151423
0.00943187
0.000665588
0.00030564
9.67986e-05
4.66996e-05
1.3736e-05
1.05238e-06
-5.25674e-10
-2.79303e-09
9.39825e-23
1.39826e-16
3.066e-11
1.1848e-06
0.00012052
0.000988087
0.00187429
0.00205507
0.00137349
1.8957e-05
0.00262799
0.0161674
0.0167917
0.0167885
0.0167916
0.000665804
8.03296e-05
8.84223e-07
4.69785e-26
2.62494e-26
2.31741e-26
-1.56342e-11
6.57856e-07
3.07147e-06
1.34042e-06
3.93109e-08
-1.69053e-25
-1.36515e-08
-2.11217e-09
1.03007e-21
9.02676e-17
-9.02584e-17
2.17802e-05
0.00127602
0.00490243
0.00699527
0.00787937
0.00838461
0.000472322
2.64414e-05
2.35705e-08
3.31315e-08
3.93531e-08
3.04305e-08
7.66784e-08
1.30746e-06
6.52609e-06
6.56212e-06
2.04016e-06
1.08372e-06
2.86793e-06
1.97242e-07
-3.89392e-24
0
-1.71973e-13
7.06212e-07
0.000189667
-1.8506e-10
-2.81261e-14
-5.50826e-13
-8.77121e-10
9.48462e-06
4.63752e-07
2.45421e-08
3.31052e-08
2.0055e-08
2.00773e-08
3.74853e-06
8.39772e-06
7.59709e-06
7.07782e-06
6.71105e-06
1.44134e-05
1.73073e-05
9.99846e-06
1.20549e-06
9.43232e-07
9.41378e-07
4.76125e-07
8.14974e-07
5.38651e-08
2.34912e-14
4.98057e-10
1.07498e-07
5.70281e-09
5.73049e-09
6.07035e-09
8.30368e-09
8.36482e-09
1.09279e-08
7.61426e-06
8.39016e-06
4.21193e-06
5.27081e-06
1.21666e-05
1.83327e-05
1.83323e-05
1.83232e-05
7.6428e-06
3.28419e-06
2.77612e-06
2.73639e-06
3.45791e-06
1.52853e-05
1.54984e-05
4.1482e-06
8.79033e-07
6.86071e-09
5.91111e-09
9.41837e-09
2.74949e-08
8.89367e-09
2.19572e-07
1.57178e-06
1.46522e-06
3.19856e-09
2.07071e-06
1.24556e-05
1.2943e-05
1.69693e-05
1.83322e-05
1.82525e-05
1.07369e-05
5.85648e-06
1.47399e-05
1.92654e-05
1.92606e-05
1.92654e-05
7.38642e-06
1.50799e-06
6.99724e-09
5.45481e-09
1.27344e-08
4.26285e-08
9.72798e-08
2.97561e-08
3.09427e-09
3.01374e-09
3.0078e-09
5.21457e-10
5.22082e-10
5.21504e-10
7.98916e-07
1.43968e-05
1.76212e-05
1.0271e-05
4.01333e-06
1.25355e-05
1.92606e-05
1.79424e-05
7.18165e-06
1.89543e-06
5.77369e-07
6.37961e-09
4.40313e-09
1.07823e-08
2.07593e-08
2.78784e-08
9.27011e-09
3.98718e-09
3.44241e-09
4.95563e-09
5.33721e-10
5.21781e-10
5.38913e-10
1.78564e-09
2.08439e-07
1.42677e-06
1.09793e-06
6.86064e-08
3.06488e-06
1.66677e-05
1.37566e-05
7.23656e-07
5.98935e-07
5.27258e-07
1.10849e-08
3.11709e-09
6.13742e-09
8.36498e-09
2.47026e-09
2.80169e-09
4.63818e-09
4.39519e-09
4.36597e-09
6.6391e-10
5.68341e-10
5.79074e-10
6.35089e-10
6.31912e-10
8.85946e-09
7.82075e-09
8.73103e-10
5.00101e-08
5.73229e-06
1.26007e-05
5.84559e-06
4.06312e-07
5.08747e-07
1.82503e-08
1.71358e-09
2.85882e-09
2.98328e-09
9.94179e-10
2.07531e-09
1.96603e-09
8.62456e-10
7.33842e-10
6.56308e-10
7.34979e-10
8.20794e-10
9.53877e-10
9.52921e-10
1.27513e-09
1.43735e-09
8.7357e-10
1.00069e-09
5.05945e-08
2.77807e-06
4.93905e-06
4.00043e-07
4.08153e-07
1.91551e-08
1.10412e-09
1.24191e-09
1.22599e-09
6.05183e-10
4.37062e-10
3.45757e-10
3.27665e-10
4.3897e-10
5.29764e-10
6.2332e-10
8.45555e-10
1.10361e-09
1.27389e-09
1.38315e-09
1.28761e-09
9.806e-10
7.86009e-10
1.19584e-09
7.48039e-09
1.92399e-07
3.09305e-07
2.99806e-07
1.9039e-08
5.97029e-10
5.39012e-10
5.47677e-10
3.8004e-10
2.97442e-10
2.54609e-10
2.37885e-10
2.55146e-10
2.85309e-10
3.72953e-10
5.35267e-10
7.22572e-10
8.92947e-10
9.96965e-10
9.18123e-10
8.34049e-10
9.98275e-10
1.49624e-09
2.22576e-09
1.8195e-09
1.13365e-07
5.87381e-08
1.93256e-08
4.72634e-10
2.96986e-10
3.12945e-10
2.46043e-10
1.99366e-10
1.62203e-10
1.36695e-10
1.20188e-10
1.09932e-10
1.31314e-10
1.71607e-10
2.29804e-10
2.93317e-10
3.45196e-10
3.6993e-10
3.83528e-10
4.93604e-10
7.55579e-10
1.1586e-09
1.75934e-09
1.27259e-09
3.13322e-08
1.90956e-08
3.83048e-10
2.22277e-10
2.14119e-10
1.76188e-10
1.45036e-10
1.19065e-10
9.85352e-11
7.79016e-11
6.26518e-11
5.75623e-11
6.38467e-11
7.69515e-11
9.5939e-11
1.18107e-10
1.36345e-10
1.55095e-10
1.98543e-10
3.09634e-10
5.41082e-10
9.19312e-10
1.28283e-09
8.51342e-09
1.98041e-08
2.62957e-10
2.18201e-10
1.91665e-10
1.80004e-10
1.79935e-10
1.71231e-10
1.41773e-10
9.87946e-11
5.92284e-11
3.87381e-11
3.01024e-11
2.89731e-11
3.34487e-11
4.13974e-11
5.08864e-11
6.22394e-11
8.12812e-11
1.23236e-10
2.13594e-10
3.92774e-10
7.17236e-10
2.27991e-09
1.97172e-08
2.84338e-10
2.44903e-10
2.50207e-10
2.69171e-10
2.71969e-10
2.51681e-10
2.08913e-10
1.45153e-10
8.2508e-11
4.53985e-11
2.5383e-11
1.57673e-11
1.28202e-11
1.40547e-11
1.77495e-11
2.3374e-11
3.2272e-11
4.992e-11
8.38609e-11
1.46033e-10
2.96912e-10
5.81847e-10
2.06726e-08
2.82054e-10
2.8194e-10
3.11436e-10
3.41272e-10
3.62213e-10
3.546e-10
3.10733e-10
2.24021e-10
1.23481e-10
6.24375e-11
3.26819e-11
1.62039e-11
8.09478e-12
5.55616e-12
5.98168e-12
8.18849e-12
1.2315e-11
1.94084e-11
3.20509e-11
5.5876e-11
9.37846e-11
1.87407e-10
2.06097e-08
3.11404e-10
3.06731e-10
3.74739e-10
4.48427e-10
5.48266e-10
5.29403e-10
4.45028e-10
3.3691e-10
1.85695e-10
8.73038e-11
4.54636e-11
2.20701e-11
9.60489e-12
4.00255e-12
2.45382e-12
2.83007e-12
4.49465e-12
7.62032e-12
1.3055e-11
2.19464e-11
4.34749e-11
6.88616e-11
2.2792e-08
3.17909e-10
3.42604e-10
4.87407e-10
7.81039e-10
1.37983e-09
1.19038e-09
5.8177e-10
4.69455e-10
2.68419e-10
1.16633e-10
6.07733e-11
3.05224e-11
1.34109e-11
5.06638e-12
1.79779e-12
1.15093e-12
1.59173e-12
2.78851e-12
4.96312e-12
9.0676e-12
1.53879e-11
2.9031e-11
2.40023e-08
4.50126e-10
4.31681e-10
8.81391e-10
2.25517e-09
4.05581e-09
4.16734e-09
6.7369e-10
5.87404e-10
3.66096e-10
1.47343e-10
7.58409e-11
3.95195e-11
1.84319e-11
7.18491e-12
2.45333e-12
7.32458e-13
5.79417e-13
9.80331e-13
1.85539e-12
3.35749e-12
7.15436e-12
1.11006e-11
2.60103e-08
5.05032e-10
1.15288e-09
6.66593e-09
2.20378e-08
4.89759e-08
1.85672e-08
6.52729e-10
6.67901e-10
4.65068e-10
1.76394e-10
8.62282e-11
4.71325e-11
2.34867e-11
9.72764e-12
3.39524e-12
1.07207e-12
2.97281e-13
3.26086e-13
5.93576e-13
1.25547e-12
2.06294e-12
4.31694e-12
2.41871e-08
4.57438e-10
1.74123e-09
3.34301e-08
3.12325e-07
5.40708e-07
2.02465e-07
6.53088e-10
7.25729e-10
5.89211e-10
2.10467e-10
9.01305e-11
5.11254e-11
2.70555e-11
1.20977e-11
4.60872e-12
1.4283e-12
3.42702e-13
1.31889e-13
1.95115e-13
3.63228e-13
8.53568e-13
1.31074e-12
3.20297e-08
2.24816e-09
3.78919e-08
2.8943e-07
9.78514e-07
9.83531e-07
5.48128e-07
6.58443e-10
7.98219e-10
6.59325e-10
2.15958e-10
8.61719e-11
5.01237e-11
2.77278e-11
1.37993e-11
5.7211e-12
1.90984e-12
5.14357e-13
8.16908e-14
6.38898e-14
1.275e-13
2.20352e-13
4.42889e-13
3.09148e-08
6.3459e-09
1.05596e-07
5.56277e-07
1.11265e-06
9.59748e-07
2.77785e-07
6.543e-10
1.16953e-09
6.58036e-10
1.99996e-10
7.5054e-11
4.39559e-11
2.58172e-11
1.37413e-11
6.31717e-12
2.36621e-12
7.17843e-13
1.19626e-13
2.71829e-14
3.50756e-14
8.61554e-14
1.30137e-13
4.93807e-08
7.47834e-09
1.4172e-07
6.26486e-07
1.10691e-06
5.18201e-07
8.39018e-10
1.96216e-09
1.76028e-09
6.02111e-10
1.67613e-10
5.96008e-11
3.54822e-11
2.12573e-11
1.19825e-11
6.10214e-12
2.57635e-12
8.53706e-13
2.12162e-13
1.98095e-14
1.09975e-14
1.79011e-14
4.20877e-14
5.44707e-08
7.80187e-09
1.28864e-07
4.58748e-07
3.62895e-07
2.06056e-08
8.48932e-10
2.96975e-09
1.86347e-09
4.78387e-10
1.25897e-10
4.37002e-11
2.60834e-11
1.56065e-11
9.07326e-12
5.03004e-12
2.42615e-12
9.02242e-13
2.55763e-13
2.94534e-14
4.67664e-15
6.22719e-15
1.01886e-14
6.18392e-08
8.82741e-09
7.65696e-08
2.29048e-07
4.10183e-08
1.09649e-09
1.41124e-09
2.63652e-09
1.21942e-09
3.19555e-10
8.41421e-11
2.97656e-11
1.73138e-11
1.02791e-11
5.95444e-12
3.48065e-12
1.90577e-12
8.29755e-13
2.66919e-13
4.34685e-14
2.98995e-15
1.36278e-15
3.08449e-15
4.91633e-08
7.06347e-09
4.09253e-08
9.26335e-09
3.83891e-09
5.22646e-09
2.47745e-09
1.83013e-09
6.26965e-10
1.85133e-10
4.9535e-11
1.80819e-11
1.05594e-11
6.0075e-12
3.36584e-12
1.99486e-12
1.20697e-12
6.2055e-13
2.36004e-13
5.57201e-14
4.02141e-15
5.8771e-16
7.19599e-16
9.38942e-08
6.21441e-09
5.4277e-09
2.06431e-09
1.90861e-09
5.62201e-09
2.90291e-09
1.21417e-09
3.01041e-10
9.34949e-11
2.41442e-11
9.82387e-12
5.84139e-12
3.16121e-12
1.64066e-12
9.37506e-13
5.8939e-13
3.57318e-13
1.66454e-13
5.18276e-14
5.40572e-15
3.03903e-16
1.90122e-16
9.15407e-08
4.56221e-09
1.77595e-09
1.58789e-09
5.95659e-09
4.82442e-09
2.62689e-09
1.07097e-09
2.71216e-10
4.28285e-11
9.48903e-12
4.70906e-12
2.89457e-12
1.49727e-12
7.01057e-13
3.57735e-13
2.17563e-13
1.46645e-13
8.69189e-14
3.56538e-14
5.43367e-15
3.00118e-16
4.85451e-17
1.59507e-07
3.21395e-08
1.70937e-09
2.429e-08
1.7875e-08
6.84788e-09
2.58791e-09
9.57559e-10
2.38392e-10
2.72769e-11
3.20895e-12
1.93128e-12
1.23892e-12
6.26229e-13
2.64932e-13
1.10488e-13
5.95213e-14
4.07261e-14
2.99645e-14
1.73652e-14
4.6071e-15
2.99005e-16
1.71681e-17
1.6751e-07
1.10633e-07
4.92177e-08
5.12905e-08
1.70352e-08
5.71483e-09
2.06777e-09
6.46807e-10
1.41138e-10
1.50735e-11
1.08195e-12
6.34733e-13
4.27827e-13
2.17263e-13
8.59881e-14
2.98681e-14
1.21732e-14
7.42886e-15
6.69988e-15
5.79871e-15
2.25331e-15
2.57269e-16
1.23504e-17
1.62991e-07
1.4886e-07
1.16551e-07
4.87846e-08
1.2547e-08
4.10643e-09
1.12237e-09
2.61868e-10
4.28176e-11
3.65962e-12
2.07706e-13
1.373e-13
1.00846e-13
5.3611e-14
2.06495e-14
6.14433e-15
1.75029e-15
8.29045e-16
9.53539e-16
1.28941e-15
8.66776e-16
1.76512e-16
1.6793e-17
1.32131e-07
1.38913e-07
8.30912e-08
1.85445e-08
4.17404e-09
8.32078e-10
1.83598e-10
3.30538e-11
3.51318e-12
1.66908e-13
1.39637e-14
1.48554e-14
1.22304e-14
6.9981e-15
2.7706e-15
7.39218e-16
1.54588e-16
5.10247e-17
8.5032e-17
2.01478e-16
2.70963e-16
1.01936e-16
1.17177e-17
0.979106
0.970276
0.975777
0.975894
0.894888
0.89751
0.898908
0.915246
0.167365
0.192835
0.22077
0.273086
-5.68411e-07
-4.03164e-06
8.04005e-13
7.07946e-13
0.000278481
0.00195773
0.00241066
-5.74842e-08
0.00029492
0.00276555
0.00639719
0.00678739
0.000187179
0.000338224
0.000805511
0.00764208
0.00834909
0.00290097
0.001901
0.00515036
0.0167872
0.0166592
0.0066297
0.00577463
0.00755429
0.00603225
0.00446814
0.00648148
-1.05988e-09
-9.77489e-10
3.91413e-05
0.000756924
1.70997e-07
9.99656e-08
5.73592e-08
3.3238e-08
2.98219e-07
3.09372e-07
3.24516e-07
3.17995e-07
3.97143e-07
2.06383e-07
1.81671e-07
2.49338e-07
2.5955e-07
4.42976e-07
1.96915e-07
1.72086e-07
3.99105e-07
1.87513e-06
1.37025e-05
3.8726e-05
8.58167e-07
4.54485e-06
4.48852e-05
4.89597e-05
7.96244e-07
3.00242e-06
2.3035e-05
4.01313e-05
5.85861e-07
1.14245e-06
2.72055e-06
2.57439e-06
2.97897e-07
4.96019e-07
1.11442e-07
2.43975e-07
7.68744e-08
7.21835e-08
5.7204e-08
1.15016e-08
2.75339e-08
2.37008e-08
1.34481e-08
1.04408e-08
5.90557e-09
3.04675e-09
4.33876e-09
4.45463e-09
1.18458e-09
1.13669e-09
1.25206e-09
1.75647e-09
3.17867e-10
3.3226e-10
5.1499e-10
5.82158e-10
1.14273e-10
1.50737e-10
1.63821e-10
2.29218e-10
4.67507e-11
5.6773e-11
8.06193e-11
9.23723e-11
1.91934e-11
2.56686e-11
3.01126e-11
4.04726e-11
6.8311e-12
8.61004e-12
1.22757e-11
1.41892e-11
2.29935e-12
3.14706e-12
3.78924e-12
5.19773e-12
6.84423e-13
8.72669e-13
1.25601e-12
1.50026e-12
2.18903e-13
2.84537e-13
3.34745e-13
4.63759e-13
5.85597e-14
7.31461e-14
9.91689e-14
1.07997e-13
1.88757e-14
2.17261e-14
2.52281e-14
3.19465e-14
4.44071e-15
5.66019e-15
7.16579e-15
7.5027e-15
1.2567e-15
1.50222e-15
1.76632e-15
2.12764e-15
3.03899e-16
3.86418e-16
4.70377e-16
5.05404e-16
6.90775e-17
8.30725e-17
1.02164e-16
1.23983e-16
1.28353e-17
1.70535e-17
2.14847e-17
2.41332e-17
2.52361e-18
3.0824e-18
3.95791e-18
5.11701e-18
5.30295e-19
5.68484e-19
7.17655e-19
8.66263e-19
1.77191e-19
1.09506e-19
1.10576e-19
1.26184e-19
0.965872
0.843067
0.880736
0.929215
0.978509
0.874589
0.970724
0.972504
0.973397
0.97191
0.945689
0.951912
0.973402
0.938127
0.775501
0.891244
0.916671
0.916599
0.916643
0.955528
0.888277
0.802557
0.889028
0.895995
0.802159
0.796852
0.870916
0.829639
0.658969
0.749871
0.869985
0.900957
0.809292
0.808557
0.747885
0.532199
0.532529
0.82298
0.434268
0.55471
0.609038
0.470023
0.255216
0.313015
0.580999
0.570029
0.0957838
0.00389127
0.259003
0.514697
0.556829
0.437736
0.349361
0.0383738
6.1339e-07
0.0502226
0.130553
0.00453217
0.0705391
0.115731
0.0342896
-2.68931e-19
0.0556556
0.209314
0.182613
0.00799095
3.21754e-05
0.000544004
0.00532201
0.00585181
7.06427e-13
-1.50247e-17
-7.25016e-07
6.16238e-06
0.000126084
0.000155397
9.46933e-07
1.20296e-12
5.10353e-18
-3.04267e-09
-6.99165e-20
0.0146006
0.114037
0.110228
0.00233506
3.15968e-05
3.2027e-05
3.09483e-05
2.92516e-05
2.76101e-05
6.58053e-05
0.000169467
0.000299969
0.00210837
0.00259943
0.00230291
2.76034e-12
7.42361e-07
3.39667e-09
3.97899e-06
0.000137689
0.0621072
0.115525
0.0169968
5.38309e-05
8.22018e-05
0.000192907
0.000225008
0.000238402
8.59677e-05
9.04502e-05
0.000281749
0.000844169
0.00263468
0.0136374
0.00812005
2.81687e-06
0.000384859
0.000434948
-3.19961e-06
0.0267232
0.0676669
0.0423948
0.000263724
0.00103222
0.00106875
0.00136831
0.00190543
0.00191628
0.00175862
0.000727121
0.000332765
0.00161153
0.015114
0.0183903
0.0123361
0.00175748
0.000981167
0.00108963
0.00236443
0.0046338
0.00601395
0.00560286
0.00235251
0.000275896
0.000277645
0.00191866
0.00338124
0.00281406
0.00122454
0.000712311
0.00143888
0.0165344
0.0183905
0.0183903
0.0161672
0.00930152
0.00835704
0.00897506
0.00881461
0.00722838
0.00504828
0.00302848
0.000394763
0.000187987
0.00125485
0.00374198
0.00374264
0.00374152
0.00276756
0.000243193
0.0120714
0.0132887
0.00952782
0.00691591
0.00605378
0.00485991
0.0050742
0.00569608
0.00591771
0.00404891
0.0017513
0.00029794
0.000177512
0.000737684
0.00243631
0.00275894
0.00187595
0.00105928
1.32361e-10
0.000609981
0.000155787
1.96012e-05
5.83877e-09
7.76605e-05
1.61867e-05
8.48888e-06
4.25503e-05
8.2292e-05
5.15894e-06
1.72032e-05
4.89525e-05
0.000155006
0.0001304
-1.33227e-10
-2.09424e-07
6.55971e-12
2.453e-10
1.83824e-10
-3.85932e-09
1.71125e-09
2.44257e-11
5.15951e-09
2.07387e-09
1.57089e-07
2.62138e-07
2.15048e-06
4.20364e-06
3.42887e-06
6.0544e-06
2.08093e-06
9.22177e-07
4.34112e-06
1.90981e-06
6.90307e-07
3.90151e-07
2.20071e-06
1.46768e-06
2.65714e-07
7.06015e-08
7.65198e-10
7.72309e-11
7.61867e-10
4.56309e-06
1.13784e-05
1.14183e-05
5.8102e-06
9.22451e-08
1.47523e-08
8.41596e-09
8.37263e-09
1.934e-06
3.15683e-06
1.40121e-06
3.16442e-06
1.00995e-05
3.45668e-06
1.19514e-07
3.61119e-08
2.8754e-06
1.24407e-05
1.7172e-05
1.71989e-05
6.68861e-06
5.39685e-07
4.49898e-07
1.6544e-06
1.09081e-05
1.17397e-05
2.56993e-06
9.59508e-07
9.27929e-07
1.15895e-06
1.21849e-05
1.18189e-05
1.19899e-05
5.65601e-06
2.46536e-05
2.56072e-05
2.57258e-05
1.22441e-05
3.51749e-06
2.39031e-06
1.25641e-05
1.75119e-05
2.13623e-05
2.12975e-05
2.16274e-05
2.05143e-05
9.73546e-06
1.0046e-06
6.67548e-06
1.21415e-05
1.11477e-05
1.18476e-05
3.73402e-05
3.92492e-05
1.35583e-05
5.55607e-06
7.68968e-07
3.25243e-07
5.61764e-06
2.05283e-05
2.11713e-05
2.13414e-05
1.68553e-05
1.61117e-05
1.94649e-05
1.48842e-05
1.1197e-06
9.44209e-06
1.22274e-05
8.78295e-06
3.53402e-06
4.90752e-05
2.27412e-05
1.3725e-06
1.41519e-06
1.39654e-06
3.24606e-07
1.63324e-06
2.0337e-06
1.28894e-06
1.80354e-06
6.39878e-06
5.89535e-06
6.27999e-06
3.08608e-06
1.40955e-06
3.34919e-06
9.77212e-06
4.28708e-07
9.28011e-08
4.06272e-05
1.81972e-05
1.37653e-06
1.36837e-06
3.21225e-06
1.46271e-06
9.82133e-07
2.06367e-06
1.04537e-05
3.72967e-05
3.90013e-05
2.2438e-05
2.34222e-05
2.86852e-05
2.09745e-05
1.5087e-05
1.00107e-06
9.29521e-08
9.3153e-08
2.53475e-06
3.38905e-06
2.94866e-06
1.44659e-06
2.97339e-06
4.60942e-06
4.54895e-06
3.61106e-06
4.47442e-05
5.25029e-05
5.25029e-05
5.25029e-05
5.19124e-05
3.69464e-05
3.78746e-05
2.32976e-05
7.13596e-06
1.00239e-06
9.58425e-08
6.35968e-09
6.17802e-09
1.18627e-06
8.43377e-07
8.49904e-07
1.15385e-06
2.12859e-06
1.29179e-06
1.17316e-05
5.01797e-05
3.87304e-05
5.92594e-06
7.44308e-08
9.44432e-06
3.89476e-05
3.92323e-05
3.04316e-05
3.42762e-06
7.54578e-08
6.98144e-09
6.50666e-09
4.45411e-09
4.89185e-09
1.42258e-07
4.41879e-07
5.59667e-09
6.40932e-07
4.58856e-06
7.9546e-06
6.56384e-06
2.02436e-06
1.24323e-07
2.18429e-09
2.11269e-05
3.91844e-05
3.91906e-05
4.90121e-06
7.45591e-08
6.15079e-09
6.62905e-09
5.54303e-09
4.32583e-09
3.49128e-09
3.32775e-09
1.90129e-09
3.67879e-08
3.74408e-07
1.82197e-06
1.96879e-06
8.7281e-07
3.29523e-09
2.471e-09
2.77674e-06
3.64703e-05
3.4674e-05
1.74809e-06
7.55186e-08
4.14205e-09
4.90369e-09
5.47961e-09
5.14117e-09
3.49444e-09
2.56361e-09
1.91005e-09
2.89053e-09
2.008e-09
2.11031e-09
2.14875e-07
5.52416e-07
2.05017e-07
1.19647e-08
1.23696e-08
3.20074e-05
1.46922e-05
4.87295e-08
2.17827e-07
1.91795e-09
2.63623e-09
3.5761e-09
3.98692e-09
4.6545e-09
5.38531e-09
6.25915e-09
3.9137e-09
2.10885e-09
6.15841e-08
4.63731e-07
5.41859e-07
2.81225e-07
8.23559e-08
1.30074e-08
1.11957e-05
5.55567e-06
4.07628e-08
2.2324e-07
7.35874e-10
1.13414e-09
1.80462e-09
2.69259e-09
4.05516e-09
5.84455e-09
7.59721e-09
1.41756e-08
6.94569e-08
1.91378e-07
2.44986e-07
1.98831e-07
1.05629e-07
4.30717e-08
8.26545e-08
2.08198e-09
2.09658e-09
2.18272e-08
2.22113e-07
2.773e-10
4.23648e-10
6.62189e-10
1.01837e-09
1.51619e-09
2.38867e-09
4.25936e-09
1.10544e-08
2.25935e-08
3.26581e-08
3.39512e-08
2.8124e-08
1.84689e-08
1.72966e-08
4.21155e-08
1.02572e-08
2.08852e-09
5.27635e-09
1.97865e-07
1.15755e-10
1.7386e-10
2.60411e-10
3.88441e-10
5.77742e-10
8.55039e-10
1.19911e-09
1.93782e-09
2.90413e-09
4.50972e-09
7.17258e-09
7.42899e-09
8.61434e-09
2.02936e-08
2.21503e-08
7.67375e-09
2.95558e-09
8.66435e-09
1.80378e-07
4.76587e-11
7.44498e-11
1.19963e-10
1.93539e-10
3.13194e-10
5.10909e-10
8.18148e-10
1.31496e-09
2.14434e-09
3.58122e-09
5.7462e-09
6.63128e-09
1.40629e-08
3.22507e-08
5.07149e-08
4.11361e-08
1.38528e-08
4.17776e-08
1.27647e-07
1.85803e-11
3.05197e-11
5.14231e-11
8.80485e-11
1.50711e-10
2.7446e-10
4.87349e-10
8.79305e-10
1.65623e-09
3.08673e-09
5.56008e-09
8.03088e-09
2.27723e-08
4.69314e-08
6.02549e-08
5.40544e-08
1.72933e-08
6.04247e-08
1.34159e-07
6.42625e-12
1.10601e-11
1.92678e-11
3.45275e-11
6.4418e-11
1.28806e-10
2.63462e-10
5.31266e-10
1.08216e-09
2.30167e-09
4.79499e-09
8.84744e-09
1.89101e-08
4.157e-08
5.47587e-08
3.62961e-08
1.48635e-08
1.13609e-07
1.30754e-07
2.07717e-12
3.40321e-12
6.00818e-12
1.11284e-11
2.20915e-11
4.79778e-11
1.06818e-10
2.59827e-10
6.35132e-10
1.55482e-09
3.60533e-09
8.07076e-09
1.44005e-08
2.23467e-08
3.03729e-08
2.34466e-08
2.79265e-08
1.24434e-07
1.3096e-07
5.42071e-13
8.59398e-13
1.38945e-12
2.38888e-12
4.51054e-12
8.90585e-12
1.63583e-11
4.70909e-11
1.48086e-10
4.54379e-10
1.24894e-09
3.02774e-09
6.85383e-09
1.33203e-08
1.73607e-08
2.16823e-08
3.95428e-08
1.15863e-07
1.09527e-07
1.47363e-13
1.98117e-13
2.87158e-13
4.36964e-13
7.11532e-13
1.19688e-12
2.02127e-12
6.20111e-12
2.20417e-11
7.37174e-11
2.34024e-10
7.32405e-10
3.2079e-09
4.39147e-09
1.1213e-08
2.5455e-08
4.65635e-08
3.82609e-08
3.08242e-07
3.4008e-14
4.63455e-14
6.18869e-14
8.68476e-14
1.31283e-13
2.10357e-13
3.24238e-13
8.78796e-13
3.07041e-12
1.11004e-11
3.81719e-11
1.34544e-10
5.6292e-10
3.04993e-09
6.45169e-09
1.7466e-08
3.37329e-08
1.89589e-08
3.69053e-07
9.23028e-15
1.1064e-14
1.40562e-14
1.91858e-14
2.9331e-14
5.13398e-14
1.03922e-13
2.303e-13
7.58822e-13
2.74593e-12
1.00784e-11
3.37034e-11
1.30347e-10
9.30542e-10
2.11707e-09
3.54611e-09
7.61827e-09
1.18694e-08
3.88839e-07
2.25383e-15
2.74692e-15
3.42823e-15
4.72536e-15
7.64285e-15
1.48913e-14
3.55775e-14
1.01825e-13
3.2028e-13
1.04439e-12
4.06995e-12
1.56661e-11
5.58472e-11
3.65058e-10
1.49501e-09
2.3821e-09
4.27033e-09
1.24696e-08
3.8861e-07
5.64692e-16
6.91419e-16
8.93766e-16
1.33576e-15
2.48085e-15
5.50252e-15
1.44896e-14
4.38214e-14
1.46606e-13
5.31174e-13
2.01001e-12
8.37097e-12
3.21735e-11
1.33011e-10
1.10226e-09
3.04233e-09
5.85681e-09
1.45186e-08
2.39641e-07
1.3314e-16
1.69909e-16
2.38511e-16
4.21102e-16
9.14839e-16
2.2955e-15
6.44658e-15
1.94765e-14
6.53588e-14
2.44214e-13
9.80609e-13
4.18268e-12
1.92099e-11
8.59865e-11
5.33371e-10
3.02142e-09
6.30096e-09
1.47349e-08
1.82472e-08
2.99409e-17
3.81301e-17
5.9085e-17
1.22493e-16
3.20556e-16
9.2828e-16
2.75819e-15
8.20799e-15
2.54978e-14
8.44701e-14
3.11174e-13
1.39202e-12
6.94919e-12
3.71187e-11
1.98497e-10
1.63533e-09
4.62737e-09
5.80643e-09
7.10411e-10
5.6469e-18
7.57197e-18
1.27451e-17
3.10818e-17
9.97601e-17
3.52229e-16
1.19522e-15
3.86167e-15
1.20307e-14
3.7861e-14
1.31248e-13
5.48194e-13
2.75359e-12
1.57545e-11
9.43304e-11
4.63698e-10
1.21767e-09
1.99888e-09
3.24003e-10
9.58338e-19
1.23715e-18
2.03895e-18
5.26498e-18
1.98188e-17
8.52325e-17
3.55889e-16
1.35955e-15
4.74809e-15
1.56567e-14
5.2477e-14
1.99379e-13
9.14858e-13
4.76283e-12
2.73315e-11
1.56955e-10
4.17109e-10
7.31618e-10
2.76094e-10
1.34542e-19
1.58397e-19
2.28458e-19
5.08134e-19
1.91253e-18
9.93898e-18
5.38711e-17
2.65777e-16
1.15221e-15
4.3682e-15
1.50624e-14
5.15513e-14
2.03826e-13
9.62376e-13
5.64569e-12
3.17132e-11
1.08128e-10
1.60916e-10
1.2437e-10
)
;

boundaryField
{
    leftWall
    {
        type            zeroGradient;
    }
    rightWall
    {
        type            zeroGradient;
    }
    lowerWall
    {
        type            zeroGradient;
    }
    atmosphere
    {
        type            inletOutlet;
        inletValue      uniform 0;
        value           nonuniform List<scalar> 
46
(
1.32131e-07
1.38913e-07
8.30912e-08
1.85445e-08
4.17404e-09
8.32078e-10
1.83598e-10
0
0
0
0
0
0
0
0
0
0
5.10248e-17
8.5032e-17
2.01478e-16
2.70963e-16
1.01936e-16
1.17178e-17
1.77191e-19
1.09507e-19
0
0
0
0
0
0
0
0
0
0
0
0
0
0
0
0
0
3.17132e-11
1.08128e-10
1.60916e-10
1.2437e-10
)
;
    }
    defaultFaces
    {
        type            empty;
    }
}


// ************************************************************************* //
