/*--------------------------------*- C++ -*----------------------------------*\
| =========                 |                                                 |
| \\      /  F ield         | OpenFOAM: The Open Source CFD Toolbox           |
|  \\    /   O peration     | Version:  2312                                  |
|   \\  /    A nd           | Website:  www.openfoam.com                      |
|    \\/     M anipulation  |                                                 |
\*---------------------------------------------------------------------------*/
FoamFile
{
    version     2.0;
    format      ascii;
    arch        "LSB;label=32;scalar=64";
    class       volScalarField;
    location    "4.35";
    object      alphas;
}
// * * * * * * * * * * * * * * * * * * * * * * * * * * * * * * * * * * * * * //

dimensions      [0 0 0 0 0 0 0];

internalField   nonuniform List<scalar> 
2268
(
2
2
2
2
2
2
2
2
2
2
2
2
2
2
2
2
2
2
2
1.99999
1.99996
1.99995
1.99996
2
2
2
2
2
2
2
2
2
2
2
2
2
2
2
2
2
2
2
2
1.99999
1.99998
1.99998
2
2
2
2
2
2
2
2
2
2
2
2
2
2
2
2
2
2
2
2
2
2
2
2
2
2
2
2
2
2
2
2
2
2
2
2
2
2
2
2
2
2
2
2
2
2.00113
2
2
2
2
2
2
2
2
2
2
1.99999
1.99998
2
2
2
1.99996
1.99315
1.98536
1.97929
1.96253
1.90962
1.904
1.90966
1.99951
1.99938
1.99984
2.00013
2.00005
1.99997
1.9999
1.99975
1.99953
1.97946
1.87264
1.72814
1.55939
1.35675
1.14789
0.956216
0.901525
0.868382
0.822344
0.782347
0.74622
0.643545
0.557392
1.60811
1.60597
1.61794
1.62662
1.61846
1.57496
1.48453
1.33716
1.09909
0.792945
0.535651
0.334713
0.173142
0.0784906
0.0465778
0.0426928
0.040258
0.0455624
0.0488485
0.0932243
0.126132
0.12158
0.105567
0.205832
0.209744
0.225933
0.235472
0.228953
0.221152
0.187163
0.0921975
0.0152575
0.000626887
0.000510484
0.000484808
0.000474918
0.000453628
0.0169911
0.0310592
0.0311025
0.0175105
0.0157965
0.0191725
0.0383879
0.0815515
0.0835044
1.94599
1.94932
1.96688
1.97108
1.96695
1.95574
1.95306
1.95332
1.95318
1.9499
1.94963
1.95197
1.96076
1.96421
1.96466
1.96427
1.96986
1.96897
1.96849
1.90144
1.95999
1.96381
1.96706
1.96687
1.96159
1.96293
1.95111
1.95207
1.95134
1.95264
1.94548
1.9282
1.92603
1.93379
1.94798
1.96177
1.96686
1.97132
1.67411
1.77304
1.7553
1.7072
1.62927
1.57186
1.5655
1.59074
1.59157
1.58538
1.55432
1.49569
1.47953
1.46914
1.47953
1.53525
1.58685
1.61674
1.6261
1.04942
0.723434
0.530798
0.448207
0.357921
0.286669
0.244683
0.243864
0.737704
0.791515
0.680338
0.611063
0.662157
0.651325
0.554257
0.627553
0.694611
0.746932
0.812865
0.293618
0.0411504
0.0471632
0.141272
0.168689
0.193063
0.207318
0.174122
0.108492
0.264939
0.360577
0.115201
0.417724
0.297752
0.119629
0.13714
0.118036
0.119086
0.37801
0.118122
0.0146508
0.013061
0.0130601
0.0184041
0.156249
0.195873
0.19661
0.103486
0.129683
0.162247
0.049703
0.159495
0.184145
0.158266
0.168523
0.177172
0.175656
0.16764
0.04296
0.0224086
0.0360178
0.0122482
0.0120287
0.0502428
0.144035
0.0431826
0.049261
0.0427473
0.0341187
0.0348124
0.0375509
0.0449583
0.326787
0.336628
0.274703
0.176264
0.159402
0.0369677
0.151363
0.105324
0.0206457
0.0127294
0.0948625
0.112053
0.0523736
0.0478117
0.0394948
0.0389754
0.0447335
0.040067
0.0453624
0.418809
0.34845
0.197526
0.134962
0.163013
0.00178279
0.00115087
0.00208766
0.00229452
0.00155076
0.000841614
0.000715851
0.000726684
0.000751956
0.000754077
0.000706888
0.000543365
0.000611659
0.000639149
0.000422918
0.0130659
0.0313347
0.0229448
0.0166314
0.0218356
0.026959
0.0269964
0.0293099
0.00554132
0.000832817
0.000809593
0.000790792
0.000813527
0.000780619
0.000773289
0.000766374
0.000844445
0.000767721
0.00078884
0.000820539
0.00102199
0.000839504
0.00173371
0.00355399
0.0241861
0.062096
0.0616233
0.0606507
0.083974
0.153843
0.200266
0.114327
0.0499322
0.0364302
0.046115
0.0799718
0.098161
0.0961293
0.0748303
0.0684014
0.0629101
0.070838
0.145323
0.156562
0.145544
0.142462
0.296799
0.508617
0.726286
0.848238
0.872065
0.892267
0.873175
0.854024
0.681527
0.667768
0.659192
0.71355
0.786554
0.808117
0.803236
0.729842
0.651688
0.650213
0.720651
0.826963
0.890231
0.91077
0.994486
1.057
1.08243
1.00727
1.02959
1.03416
1.03556
1.03295
1.00699
1.07288
1.04837
1.02569
1.01937
1.01444
1.01258
1.01272
1.06239
1.1525
1.10084
1.01027
1.01359
1.00576
1.02442
1.16452
1.17649
1.00595
1.00043
1.00057
1.00061
1.00413
1.00923
1.00263
1.2191
1.19811
1.14658
1.10222
1.05966
1.0261
1.01303
1.01227
1.01771
1.02272
1.00089
1.00079
1.00081
1.00153
1.02528
1.03874
1.0007
1.00006
0.999779
1.00031
1.00064
1.00064
1.00038
2.53658
2.51471
2.49434
2.40694
2.28015
2.12673
1.97362
1.80759
1.62643
1.49227
1.34387
1.1982
1.09049
1.01148
0.997819
0.99924
0.999667
0.999651
0.999519
0.999664
0.999757
0.999972
1.00017
2.99745
2.99898
2.99953
2.99956
2.99915
2.99578
2.98221
2.97934
2.97964
2.93878
2.85672
2.74241
2.59733
2.39206
2.08611
1.78389
1.49757
1.25235
1.10129
1.02234
0.98393
0.986402
0.99214
2.99745
2.99883
2.99969
2.99988
2.99997
3
3
3
3
3
3
2.99995
2.99912
2.99528
2.99145
2.96412
2.86358
2.66406
2.42704
2.25832
2.0996
1.98204
1.95283
2.99775
2.99967
2.99999
3
3
3
3
3
2.99999
2.99998
2.99999
3
3
3
3
2.99999
2.99994
2.99972
2.99366
2.98081
2.97473
2.97094
2.96886
2.9983
2.99991
3
3
3
3
3
2.99998
2.99992
2.99986
2.99992
2.99998
2.99996
2.99999
2.99999
3
3
2.99999
2.99942
2.99998
2.99998
2.99999
2.99999
2.99989
3
3
3
3
3
2.99999
2.99987
2.99986
2.99986
2.99986
2.99986
2.99986
2.9999
2.99999
3
3
3
3
3
3
3
3
3
3
3
3
3
3
2.99996
2.9999
2.99987
2.99987
2.99986
2.99986
2.99986
2.99991
2.99997
2.99999
2.99999
2.99999
2.99998
2.99993
2.99992
2.99997
3
3
3
3
3
3
3
2.99999
3
2.99998
2.99996
2.99993
2.99993
2.99994
2.99994
2.99994
2.99997
2.99996
2.99992
2.99991
2.99991
2.99991
2.99995
2.99999
3
3
3
3
3
3
3
3
3
3
3
3
3
2.99996
2.99995
2.99996
2.99997
2.99994
2.99991
2.99991
2.99996
2.99999
3
3
3
3
3
3
3
3
3
3
3
3
3
3
3
2.99999
2.99999
3
2.99999
2.99993
2.99993
2.99999
3
3
3
3
3
3
3
3
3
3
3
3
3
3
3
3
3
3
3
3
2.99997
2.99994
2.99996
3
3
3
3
3
3
3
3
3
3
3
3
3
3
3
3
3
3
3
3
3
2.99998
2.99997
3
3
3
3
3
3
3
3
3
3
3
3
3
3
3
3
3
3
3
3
3
3
3
3
3
3
3
3
3
3
3
3
3
3
3
3
3
3
3
3
3
3
3
3
3
3
3
3
3
3
3
3
3
3
3
3
3
3
3
3
3
3
3
3
3
3
3
3
3
3
3
3
3
3
3
3
3
3
3
3
3
3
3
3
3
3
3
3
3
3
3
3
3
3
3
3
3
3
3
3
3
3
3
3
3
3
3
3
3
3
3
3
3
3
3
3
3
3
3
3
3
3
3
3
3
3
3
3
3
3
3
3
3
3
3
3
3
3
3
3
3
3
3
3
3
3
3
3
3
3
3
3
3
3
3
3
3
3
3
3
3
3
3
3
3
3
3
3
3
3
3
3
3
3
3
3
3
3
3
3
3
3
3
3
3
3
3
3
3
3
3
3
3
3
3
3
3
3
3
3
3
3
3
3
3
3
3
3
3
3
3
3
3
3
3
3
3
3
3
3
3
3
3
3
3
3
3
3
3
3
3
3
3
3
3
3
3
3
3
3
3
3
3
3
3
3
3
3
3
3
3
3
3
3
3
3
3
3
3
3
3
3
3
3
3
3
3
3
3
3
3
3
3
3
3
3
3
3
3
3
3
3
3
3
3
3
3
3
3
3
3
3
3
3
3
3
3
3
3
3
3
3
3
3
3
3
3
3
3
3
3
3
3
3
3
3
3
3
3
3
3
3
3
3
3
3
3
3
3
3
3
3
3
3
3
3
3
3
3
3
3
3
3
3
3
3
3
3
3
3
3
3
3
3
3
3
3
3
3
3
3
3
3
3
3
3
3
3
3
3
3
3
3
3
3
3
3
3
3
3
3
3
3
3
3
3
3
3
3
3
3
3
3
3
3
3
3
3
3
3
3
3
3
3
3
3
3
3
3
3
3
3
3
3
3
3
3
3
3
3
3
3
3
3
3
3
3
3
3
3
3
3
3
3
3
3
3
3
3
3
3
3
3
3
3
3
3
3
3
3
3
3
3
3
3
3
3
3
3
3
3
3
3
3
3
3
3
3
3
3
3
3
3
3
3
3
3
3
3
3
3
3
3
3
3
3
3
3
3
3
3
3
3
3
3
3
3
3
3
3
3
3
3
3
3
3
3
3
3
3
3
3
3
3
3
3
3
3
3
3
3
3
3
3
3
3
3
3
3
3
3
3
3
3
3
3
3
3
3
3
3
3
3
3
3
3
3
3
3
3
3
3
3
3
0.0371872
0.0652604
0.0534943
0.0532142
0.217577
0.213773
0.192096
0.0923153
0.847441
0.842228
0.811849
0.696617
1.00096
1.00478
1.01514
1.03402
0.99957
0.998641
1.00194
1.02956
0.999733
0.994929
0.997654
1.00453
0.999881
0.999714
0.998525
0.991063
0.994856
0.998375
0.997886
0.994062
1.94211
1.85037
1.80945
1.79542
2.97027
2.96822
2.96484
2.94723
3
2.99999
2.99912
2.99625
3
3
3
3
3
3
3
3
3
3
3
3
3
3
3
3
3
2.99999
2.99995
2.99983
3
2.99998
2.99984
2.9998
3
2.99999
2.99991
2.99985
3
3
2.99999
2.99999
3
3
3
3
3
3
3
3
3
3
3
3
3
3
3
3
3
3
3
3
3
3
3
3
3
3
3
3
3
3
3
3
3
3
3
3
3
3
3
3
3
3
3
3
3
3
3
3
3
3
3
3
3
3
3
3
3
3
3
3
3
3
3
3
3
3
3
3
3
3
3
3
3
3
3
3
3
3
3
3
3
3
3
3
3
3
3
3
3
3
3
3
0.0357938
0.151793
0.132946
0.0843594
0.0292541
0.139621
0.0618975
0.0629135
0.056132
0.06195
0.12376
0.106415
0.0475794
0.139163
0.417718
0.224578
0.122693
0.110448
0.120201
0.038402
0.106622
0.188499
0.147787
0.180295
0.361966
0.537243
0.350311
0.286038
0.459342
0.4335
0.317297
0.245003
0.390072
0.280419
0.316823
0.52391
0.504147
0.189796
0.482489
0.40378
0.421309
0.655451
0.960129
1.01698
0.792155
0.852413
1.07309
1.07093
0.92149
0.702414
0.674441
0.800334
0.827236
1.00264
1.02285
0.982889
0.909126
1.04387
0.963674
0.934266
1.03258
1.23794
1.30619
1.1605
1.10416
1.017
1.0289
1.15338
1.20956
1.20894
1.1815
1.04164
1.00764
1.00721
1.00289
1.00229
1.06454
1.0655
1.03549
1.00338
1.02912
1.27355
1.2519
1.10533
1.00497
1.00819
1.02109
1.02676
1.01823
1.01256
1.02925
1.03445
1.02779
0.998649
0.999052
1.02085
1.02556
1.00717
1.00113
1.0017
1.17311
1.29477
1.09657
0.990211
1.0033
1.00324
1.00294
1.00312
1.00386
1.00478
1.00963
1.00423
1.00141
1.00437
0.987731
0.999811
1.00114
1.00037
1.00087
1.02166
1.14668
1.14112
1.06258
1.00335
1.00151
1.00073
0.999752
0.998594
0.998595
0.998881
1.0012
1.00587
1.00576
0.984506
0.984654
0.99326
0.999808
0.999334
0.999085
0.997161
1.0164
1.02996
1.01127
1.00778
1.00693
1.00404
0.99886
0.997007
0.998078
1.00707
1.04284
1.03676
1.80949
1.86285
1.67631
1.54193
1.48263
1.55254
1.75366
1.9271
2.02451
2.05979
2.03189
1.99073
1.93554
1.8535
1.8218
1.86857
2.05267
2.31026
2.28863
2.93708
2.94302
2.92798
2.8931
2.8588
2.88803
2.94191
2.96688
2.97866
2.99062
2.99526
2.9969
2.99652
2.99398
2.99024
2.98979
2.9925
2.99402
2.99477
2.99769
2.99944
2.99991
2.99991
2.99927
2.99965
2.9997
2.99943
2.99926
2.99997
2.99997
2.99983
2.99967
2.99998
3
3
2.99999
2.99998
2.99997
3
3
3
3
3
3
3
3
2.99995
2.9999
2.9999
2.99995
2.99998
2.99999
2.99999
2.99999
2.99996
2.99991
2.99995
3
3
3
3
3
2.99999
2.99985
2.99982
2.99982
2.99992
2.99998
3
3
3
2.99999
2.99999
2.99989
2.99974
2.99989
3
3
2.99999
2.99991
2.9998
2.9998
2.99985
2.99997
2.99997
2.99994
2.99976
2.99963
2.99978
2.99999
2.99999
2.99996
2.99975
2.99974
2.99975
2.99997
2.99983
2.99975
2.99975
2.99978
2.99988
2.99991
2.99975
2.99959
2.9995
2.9995
2.9995
2.99967
2.99996
2.99999
2.99977
2.99974
2.99974
2.99987
2.99982
2.99981
2.99984
2.99988
2.99994
2.99999
2.99972
2.99949
2.99949
2.9995
2.99977
2.99986
2.9999
2.99993
2.99985
2.99975
2.99974
2.99974
2.99999
2.99981
2.99992
2.99999
2.99999
2.99999
2.99999
2.99966
2.99955
2.99958
2.99993
2.99996
2.99996
2.99996
2.99995
2.99984
2.99983
2.99974
2.99987
2.99999
2.99987
2.99994
2.99998
2.99999
2.99999
2.99999
2.99992
2.99985
2.99986
2.99983
2.99986
2.99991
2.9999
2.99985
2.9999
2.9999
2.99977
2.99993
2.99999
2.99999
2.99999
2.99998
2.99997
2.99997
2.99997
2.99998
2.99998
2.99986
2.99982
2.99983
2.99983
2.99983
2.99984
2.99985
2.99989
2.99977
2.99988
2.99999
3
3
3
2.99997
2.99996
2.99996
2.99998
2.99998
2.99997
2.99985
2.99987
2.99998
3
2.99997
2.99987
2.99985
2.99984
2.9999
2.99999
3
3
3
3
2.99998
2.99999
2.99995
2.99993
2.99991
2.9999
2.99991
2.99995
3
3
2.99996
2.99984
2.99985
2.99998
3
3
3
3
3
3
3
3
2.99999
2.99994
2.99992
2.99992
2.99993
2.99999
3
3
2.99984
2.99986
2.99999
3
3
3
3
3
3
3
3
3
3
2.99999
2.99998
2.99999
3
3
3
2.99987
2.99991
2.99999
3
3
3
3
3
3
3
3
3
3
3
3
3
3
3
3
2.99993
2.99994
3
3
3
3
3
3
3
3
3
3
3
3
3
3
3
3
3
2.99998
2.99998
3
3
3
3
3
3
3
3
3
3
3
3
3
3
3
3
3
3
3
3
3
3
3
3
3
3
3
3
3
3
3
3
3
3
3
3
3
3
3
3
3
3
3
3
3
3
3
3
3
3
3
3
3
3
3
3
3
3
3
3
3
3
3
3
3
3
3
3
3
3
3
3
3
3
3
3
3
3
3
3
3
3
3
3
3
3
3
3
3
3
3
3
3
3
3
3
3
3
3
3
3
3
3
3
3
3
3
3
3
3
3
3
3
3
3
3
3
3
3
3
3
3
3
3
3
3
3
3
3
3
3
3
3
3
3
3
3
3
3
3
3
3
3
3
3
3
3
3
3
3
3
3
3
2.99999
3
3
3
3
3
3
3
3
3
3
3
3
3
3
3
3
3
3
2.99999
3
3
3
3
3
3
3
3
3
3
3
3
3
2.99999
2.99999
3
3
3
2.99999
3
3
3
3
3
3
3
3
3
3
3
3
3
2.99999
2.99999
2.99999
3
3
3
3
3
3
3
3
3
3
3
3
3
3
3
3
3
2.99999
2.99999
3
3
3
3
3
3
3
3
3
3
3
3
3
3
3
3
3
2.99999
2.99999
2.99999
2.99999
2.99999
3
3
3
3
3
3
3
3
3
3
3
3
3
3
3
2.99999
2.99999
2.99999
3
3
3
3
3
3
3
3
3
3
3
3
3
3
3
3
3
3
3
3
3
3
3
3
3
3
3
3
3
3
3
3
3
3
3
3
3
3
3
3
3
3
3
3
3
3
3
3
3
3
3
3
3
3
3
3
3
3
)
;

boundaryField
{
    leftWall
    {
        type            calculated;
        value           nonuniform List<scalar> 
50
(
2
2
2
2
2
1.99951
1.60811
0.205832
0.00178279
0.00554132
0.114327
0.681527
1.07288
1.2191
2.53658
2.99745
2.99745
2.99775
2.9983
2.99989
3
3
3
3
3
3
3
3
3
3
3
3
3
3
3
3
3
3
3
3
3
3
3
3
3
3
3
3
3
3
)
;
    }
    rightWall
    {
        type            calculated;
        value           nonuniform List<scalar> 
50
(
1.96849
1.97132
1.6261
0.812865
0.37801
0.16764
0.159402
0.163013
0.120201
0.189796
0.909126
1.00229
0.999052
1.00437
1.00576
1.03676
2.28863
2.99477
2.99997
2.99995
2.99989
2.99975
2.99987
2.99999
2.99999
2.99999
2.99999
2.99999
3
3
3
3
3
3
3
3
3
3
3
3
2.99999
2.99999
2.99999
3
3
2.99999
3
3
3
3
)
;
    }
    lowerWall
    {
        type            calculated;
        value           nonuniform List<scalar> 
62
(
2
2
2
2
2
2
2
2
2
2
2
2
2
2
2
2
2
2
2
1.99999
1.99996
1.99995
1.99996
1.99996
1.99998
2
2.00113
1.90966
0.557392
0.105567
0.0835044
0.0371872
0.0652604
0.0534943
0.0532142
1.94599
1.90144
1.67411
1.04942
0.293618
0.118122
0.04296
0.0369677
1.94599
1.94932
1.96688
1.97108
1.96695
1.95574
1.95306
1.95332
1.95318
1.9499
1.94963
1.95197
1.96076
1.96421
1.96466
1.96427
1.96986
1.96897
1.96849
)
;
    }
    atmosphere
    {
        type            calculated;
        value           nonuniform List<scalar> 
46
(
3
3
3
3
3
3
3
3
3
3
3
3
3
3
3
3
3
3
3
3
3
3
3
3
3.00001
3
3
3
3
3
3
3
3
3
3
3
3
3
3
3
3
3
3
3
3
3
)
;
    }
    defaultFaces
    {
        type            empty;
    }
}


// ************************************************************************* //
