/*--------------------------------*- C++ -*----------------------------------*\
| =========                 |                                                 |
| \\      /  F ield         | OpenFOAM: The Open Source CFD Toolbox           |
|  \\    /   O peration     | Version:  2312                                  |
|   \\  /    A nd           | Website:  www.openfoam.com                      |
|    \\/     M anipulation  |                                                 |
\*---------------------------------------------------------------------------*/
FoamFile
{
    version     2.0;
    format      ascii;
    arch        "LSB;label=32;scalar=64";
    class       volScalarField;
    location    "4.35";
    object      p;
}
// * * * * * * * * * * * * * * * * * * * * * * * * * * * * * * * * * * * * * //

dimensions      [1 -1 -2 0 0 0 0];

internalField   nonuniform List<scalar> 
2268
(
5785.24
5780.63
5768.82
5749.81
5721.51
5681.77
5628.75
5561.75
5481.42
5389.56
5289.58
5186.28
5084.63
4989.14
4903.82
4831.11
4771.77
4725.04
4689.73
4664
4646.2
4635.03
4628.58
4985.89
4982.23
4972.1
4954.39
4927.22
4888.31
4835.65
4768.48
4687.68
4595.07
4493.99
4389.52
4286.79
4190.36
4104.45
4031.56
3972.38
3925.91
3891.04
3865.74
3848.28
3837.28
3831.35
4186.4
4183.87
4175.8
4160.19
4135.06
4097.75
4045.87
3978.36
3896.54
3802.39
3699.14
3592.47
3487.67
3389.37
3302.33
3229.01
3170.07
3124.02
3090
3065.53
3048.73
3038.2
3032.49
3386.35
3385.17
3379.7
3367.21
3345.26
3310.45
3259.62
3191.43
3107.96
3011.22
2904.44
2794.62
2687.01
2586.16
2497.64
2423.74
2365.19
2319.61
2286.9
2263.67
2247.86
2238.17
2233.11
2583.65
2584.09
2582.2
2574.24
2557.02
2526.37
2477.49
2408.23
2321.9
2220.95
2108.82
1995.07
1884.09
1779.98
1689.55
1614.78
1560.4
1519.27
1491.47
1473.28
1462.86
1456.09
1451.76
1782.83
1783.41
1784.49
1781.86
1770.3
1744.75
1698.91
1629.37
1538.39
1434.92
1333.79
1241.87
1158.74
1089.57
1036.84
999.064
972.414
954.947
944.179
938.094
936.478
935.628
941.844
1061.92
1061.75
1062.9
1063.08
1058.61
1046.47
1019.2
971.723
916.586
865.251
826.288
796.976
775.475
763.783
758.983
758.742
757.893
759.443
761.288
763.364
765.815
768.167
774.779
672.246
671.692
669.839
668.166
666.313
664.261
660.173
656.717
655.365
660.247
666.933
673.918
681.511
688.157
692.903
695.329
698.125
700.323
702.473
705.179
708.22
710.115
711.296
2976.06
2957.03
2914.57
2863.99
2814.56
2770.33
2744.04
2736.33
2729.57
2703.05
2661.01
2614.6
2581.18
2573.14
2588.13
2620.95
2659.71
2693.84
2718.85
2221.37
2194.42
2149.4
2096.19
2047.09
2004.48
1981.58
1981.11
1972.32
1942.22
1897.67
1851.14
1821.21
1814.08
1827.74
1858.55
1898.08
1933.7
1955.15
1563.73
1499.56
1451.49
1415.08
1384.85
1358.25
1344.03
1349.25
1355.75
1328.14
1285.72
1256.31
1242.33
1235.98
1241.62
1258.46
1286.5
1315.51
1331.77
1115
1065.73
1044.31
1041.8
1041.75
1039.61
1038.03
1043.35
1047.07
1031.3
1012.34
1009.44
1002.75
998.917
999.913
998.122
1001.43
1007.34
1010.49
921.512
915.664
918.802
928.501
937.113
940.687
943.445
949.777
947.023
944.878
945.937
949.473
942.294
937.694
938.633
930.939
922.663
914.335
910.665
863.583
854.033
856.571
864.725
871.315
871.117
872.584
876.249
882.297
886.914
891.911
892.699
889.568
883.809
880.074
873.22
864.561
857.43
857.034
802.657
791.031
795.417
804.451
811.663
811.687
813.974
812.347
816.178
825.648
835.11
834.828
831.506
826.746
819.141
811.976
804.278
798.349
798.775
741.121
731.189
737.256
744.766
752.25
752.805
756.839
753.385
753.984
765.683
776.791
775.866
771.286
767.521
757.236
748.208
743.381
737.917
739.443
540.412
539.114
537.004
536.295
537.239
538.25
540.756
546.91
557.143
565.776
572.788
579.515
586.256
592.506
597.709
601.314
604.243
606.361
608.715
611.718
615.099
618.276
620.841
413.219
412.899
412.329
412.269
413.511
415.852
419.791
426.191
433.127
439.927
446.072
451.877
458.145
464.455
470.157
474.191
476.171
477.174
479.823
483.832
487.771
491.652
495.799
288.95
288.855
289.155
289.678
290.558
292.708
296.47
302.052
308.726
315.068
320.785
326.74
333.411
340.468
348.03
355.404
360.63
364.865
370.103
376.065
381.171
385.546
390.235
183.903
183.657
184.577
186.255
188.335
190.614
193.689
197.867
203.681
211.196
218.291
226.129
235.201
244.333
253.525
264.19
274.694
284.103
292.533
299.903
305.86
310.693
315.365
108.91
108.654
109.64
112.025
115.461
119.107
123.236
127.525
132.006
138.173
146.488
156.072
166.342
176.561
187.166
198.025
209.276
219.522
228.73
236.539
242.796
247.847
252.293
47.2863
46.6923
47.0849
49.3137
52.8249
57.2282
62.426
68.199
74.2925
80.3024
87.4317
95.8814
105.065
115.003
125.718
136.153
146.982
157.983
167.613
175.509
181.76
186.536
190.546
8.26373
7.91921
7.73442
8.75355
10.7396
13.056
15.89
18.7571
21.6827
24.8513
29.6157
36.0012
43.5216
52.2636
62.6122
73.5747
85.4538
97.1104
106.996
114.831
120.801
125.034
128.289
0.246956
-0.338079
-0.721
-0.843118
-0.90044
-0.984717
-0.861631
-0.775222
-0.662671
-0.0778841
1.21951
3.24373
6.1438
9.75747
15.0184
21.3559
29.7221
38.8749
47.3118
53.9881
59.28
62.9755
65.387
-0.715493
-1.16782
-1.27379
-1.29696
-1.31478
-1.31813
-1.33545
-1.33583
-1.326
-1.31292
-1.29055
-1.26206
-1.2004
-1.02262
-0.673383
0.168104
2.01827
4.8694
8.46784
11.6027
14.212
16.1576
17.1871
-1.4118
-1.51803
-1.47697
-1.4758
-1.47219
-1.47176
-1.47698
-1.48211
-1.48497
-1.48196
-1.47433
-1.46027
-1.44263
-1.41707
-1.3647
-1.3039
-1.26882
-1.25821
-1.18213
-1.06017
-1.02994
-1.00006
-0.948494
-1.68551
-1.6635
-1.63225
-1.62222
-1.61644
-1.6142
-1.61634
-1.6169
-1.61614
-1.61674
-1.61252
-1.60524
-1.60091
-1.59522
-1.59071
-1.59236
-1.61389
-1.63894
-1.67961
-1.72359
-1.74863
-1.75539
-1.74215
-1.80231
-1.7938
-1.77501
-1.76401
-1.75849
-1.75666
-1.75728
-1.75942
-1.7601
-1.76094
-1.76012
-1.75946
-1.76329
-1.77115
-1.78833
-1.81351
-1.83452
-1.85226
-1.87941
-1.89785
-1.90598
-1.90707
-1.89814
-1.92352
-1.91968
-1.90974
-1.90256
-1.89848
-1.89701
-1.8975
-1.89978
-1.90207
-1.90473
-1.9076
-1.91281
-1.92264
-1.93841
-1.95966
-1.98761
-2.00534
-2.01609
-2.02448
-2.03351
-2.04372
-2.04787
-2.04581
-2.05058
-2.04725
-2.04248
-2.03849
-2.03603
-2.03533
-2.0365
-2.03926
-2.04258
-2.04709
-2.05268
-2.06006
-2.07146
-2.087
-2.10547
-2.12528
-2.13976
-2.14975
-2.15987
-2.1713
-2.1804
-2.18387
-2.18232
-2.17844
-2.17713
-2.17497
-2.17295
-2.17177
-2.17174
-2.17316
-2.17598
-2.18
-2.18505
-2.1916
-2.20006
-2.21127
-2.22532
-2.24076
-2.25681
-2.27009
-2.28119
-2.2923
-2.3039
-2.31183
-2.31445
-2.31229
-2.30878
-2.30826
-2.30733
-2.3065
-2.30622
-2.3068
-2.3085
-2.31141
-2.3155
-2.32072
-2.32726
-2.33557
-2.3459
-2.3582
-2.37137
-2.3847
-2.39691
-2.40764
-2.41788
-2.42792
-2.43578
-2.43928
-2.43833
-2.43993
-2.43978
-2.43951
-2.43941
-2.43977
-2.44082
-2.44279
-2.4458
-2.44989
-2.45506
-2.4612
-2.46895
-2.47812
-2.48856
-2.4997
-2.51103
-2.52196
-2.53206
-2.54149
-2.5494
-2.55665
-2.56135
-2.56244
-2.57127
-2.57134
-2.57144
-2.57181
-2.57259
-2.57398
-2.57613
-2.57919
-2.58317
-2.58808
-2.59395
-2.60097
-2.60905
-2.61802
-2.6275
-2.63716
-2.64669
-2.65576
-2.6644
-2.672
-2.6781
-2.68249
-2.68598
-2.70258
-2.70277
-2.70311
-2.70375
-2.7048
-2.70641
-2.70868
-2.71171
-2.71553
-2.72016
-2.72562
-2.73195
-2.73907
-2.74685
-2.75502
-2.76336
-2.77166
-2.77966
-2.78724
-2.79427
-2.80008
-2.80438
-2.80873
-2.83371
-2.83397
-2.83446
-2.83527
-2.83649
-2.8382
-2.84051
-2.84346
-2.84709
-2.85142
-2.85643
-2.86213
-2.86843
-2.87523
-2.88235
-2.88961
-2.89686
-2.9039
-2.9106
-2.91682
-2.92227
-2.92667
-2.93071
-2.96461
-2.96492
-2.96549
-2.9664
-2.96769
-2.96944
-2.97172
-2.97456
-2.97798
-2.98199
-2.98656
-2.99168
-2.99728
-3.00327
-3.00951
-3.01587
-3.02223
-3.02844
-3.03438
-3.0399
-3.04486
-3.04913
-3.05276
-3.09523
-3.09557
-3.09618
-3.09714
-3.09846
-3.1002
-3.10241
-3.10511
-3.1083
-3.11199
-3.11615
-3.12075
-3.12574
-3.13103
-3.13653
-3.14214
-3.14774
-3.15323
-3.15849
-3.16342
-3.16791
-3.17187
-3.17529
-3.22557
-3.22593
-3.22656
-3.22753
-3.22885
-3.23054
-3.23265
-3.23519
-3.23815
-3.24153
-3.2453
-3.24944
-3.25389
-3.25859
-3.26345
-3.26841
-3.27336
-3.27822
-3.28289
-3.2873
-3.29136
-3.29501
-3.29824
-3.35564
-3.35601
-3.35665
-3.35761
-3.35889
-3.36052
-3.36251
-3.36486
-3.36759
-3.37068
-3.37409
-3.37781
-3.38179
-3.38596
-3.39028
-3.39467
-3.39906
-3.40337
-3.40753
-3.41148
-3.41514
-3.41849
-3.4215
-3.48545
-3.48583
-3.48647
-3.48741
-3.48864
-3.49017
-3.49203
-3.49421
-3.4967
-3.4995
-3.50259
-3.50593
-3.50948
-3.5132
-3.51704
-3.52094
-3.52483
-3.52867
-3.53238
-3.53591
-3.53922
-3.54227
-3.54505
-3.61504
-3.61542
-3.61605
-3.61695
-3.61812
-3.61955
-3.62126
-3.62326
-3.62552
-3.62806
-3.63084
-3.63384
-3.63701
-3.64033
-3.64374
-3.6472
-3.65067
-3.65408
-3.65739
-3.66056
-3.66354
-3.66632
-3.66887
-3.74443
-3.74481
-3.74541
-3.74627
-3.74737
-3.74869
-3.75026
-3.75207
-3.75412
-3.7564
-3.7589
-3.76158
-3.76441
-3.76736
-3.77039
-3.77347
-3.77655
-3.77959
-3.78255
-3.78539
-3.78807
-3.79059
-3.79292
-3.87365
-3.87402
-3.8746
-3.87541
-3.87642
-3.87763
-3.87905
-3.88068
-3.88252
-3.88456
-3.88679
-3.88918
-3.89169
-3.89431
-3.89701
-3.89974
-3.90247
-3.90518
-3.90782
-3.91036
-3.91278
-3.91506
-3.91718
-4.00273
-4.00309
-4.00364
-4.00439
-4.00531
-4.00639
-4.00766
-4.00912
-4.01075
-4.01256
-4.01453
-4.01665
-4.01888
-4.0212
-4.02358
-4.026
-4.02843
-4.03083
-4.03319
-4.03546
-4.03763
-4.03969
-4.04162
-4.1317
-4.13206
-4.13258
-4.13326
-4.13407
-4.13503
-4.13614
-4.13741
-4.13884
-4.14042
-4.14215
-4.14401
-4.14598
-4.14802
-4.15012
-4.15226
-4.15441
-4.15654
-4.15863
-4.16066
-4.1626
-4.16445
-4.1662
-4.26058
-4.26094
-4.26143
-4.26206
-4.26278
-4.2636
-4.26453
-4.26559
-4.2668
-4.26816
-4.26966
-4.27128
-4.273
-4.27479
-4.27663
-4.27851
-4.2804
-4.28228
-4.28414
-4.28594
-4.28767
-4.28933
-4.29091
-4.38938
-4.38973
-4.3902
-4.39079
-4.39141
-4.39209
-4.39282
-4.39365
-4.39464
-4.39577
-4.39705
-4.39845
-4.39993
-4.40149
-4.4031
-4.40475
-4.4064
-4.40806
-4.40969
-4.41128
-4.41282
-4.4143
-4.41572
-4.51804
-4.5184
-4.51886
-4.51941
-4.51994
-4.52044
-4.52095
-4.52157
-4.52234
-4.52327
-4.52433
-4.52552
-4.5268
-4.52814
-4.52954
-4.53097
-4.53241
-4.53385
-4.53528
-4.53668
-4.53804
-4.53935
-4.54061
-4.64652
-4.64687
-4.64732
-4.64783
-4.64827
-4.64859
-4.64891
-4.64932
-4.64989
-4.65063
-4.6515
-4.65249
-4.65358
-4.65473
-4.65593
-4.65716
-4.65841
-4.65966
-4.6609
-4.66212
-4.66331
-4.66446
-4.66557
-4.77474
-4.77508
-4.77552
-4.77599
-4.77633
-4.77651
-4.77665
-4.77689
-4.77729
-4.77785
-4.77856
-4.77938
-4.78029
-4.78126
-4.78229
-4.78334
-4.7844
-4.78548
-4.78654
-4.78759
-4.78862
-4.78962
-4.79059
-4.90265
-4.90296
-4.90338
-4.90382
-4.90407
-4.90416
-4.90415
-4.90426
-4.90452
-4.90495
-4.90551
-4.90618
-4.90693
-4.90774
-4.9086
-4.90949
-4.91039
-4.91129
-4.9122
-4.91309
-4.91396
-4.91482
-4.91565
-5.03026
-5.03051
-5.0309
-5.03127
-5.03146
-5.03149
-5.03142
-5.03144
-5.0316
-5.03191
-5.03236
-5.0329
-5.03351
-5.03417
-5.03488
-5.03561
-5.03636
-5.03711
-5.03786
-5.0386
-5.03933
-5.04005
-5.04075
-5.15763
-5.15781
-5.15811
-5.15839
-5.15853
-5.15852
-5.15844
-5.15843
-5.15854
-5.15878
-5.15913
-5.15955
-5.16003
-5.16056
-5.16113
-5.16171
-5.16231
-5.16292
-5.16352
-5.16412
-5.16472
-5.1653
-5.16588
-5.28485
-5.28495
-5.28512
-5.28529
-5.28537
-5.28535
-5.2853
-5.2853
-5.28539
-5.28557
-5.28583
-5.28615
-5.28652
-5.28692
-5.28735
-5.2878
-5.28826
-5.28873
-5.28919
-5.28966
-5.29011
-5.29057
-5.29101
-5.41201
-5.41203
-5.41206
-5.41208
-5.4121
-5.41209
-5.41209
-5.4121
-5.41217
-5.4123
-5.41249
-5.41272
-5.41298
-5.41326
-5.41356
-5.41387
-5.4142
-5.41453
-5.41486
-5.41519
-5.41552
-5.41584
-5.41616
-5.53919
-5.53914
-5.53902
-5.53888
-5.53882
-5.53881
-5.53888
-5.53886
-5.53891
-5.539
-5.53912
-5.53925
-5.53941
-5.53957
-5.53975
-5.53993
-5.54013
-5.54033
-5.54053
-5.54073
-5.54092
-5.54112
-5.54132
-5.66647
-5.66635
-5.6661
-5.66583
-5.66565
-5.66557
-5.66552
-5.66559
-5.66564
-5.66569
-5.66574
-5.66578
-5.66583
-5.66588
-5.66594
-5.66599
-5.66605
-5.66611
-5.66619
-5.66626
-5.66633
-5.6664
-5.66647
625.534
630.076
635.279
640.555
500.787
505.073
509.911
515.169
394.644
397.778
400.77
403.828
319.087
321.412
323.55
325.498
255.031
256.529
258.579
261.463
192.981
194.238
196.106
198.875
130.535
131.973
133.539
135.577
67.2347
68.8117
70.3269
71.7696
17.8
18.6597
19.5985
20.4874
-0.886397
-0.833574
-0.688886
-0.422276
-1.71388
-1.68921
-1.67358
-1.68728
-1.89128
-1.89133
-1.89784
-1.9007
-2.04338
-2.04166
-2.04029
-2.03664
-2.17916
-2.1767
-2.17356
-2.16918
-2.30816
-2.30456
-2.30034
-2.29601
-2.43488
-2.4313
-2.42666
-2.42388
-2.5621
-2.56132
-2.55991
-2.55904
-2.68899
-2.69142
-2.69363
-2.69422
-2.81277
-2.81591
-2.81889
-2.82023
-2.93432
-2.93681
-2.93887
-2.94005
-3.05583
-3.05778
-3.05936
-3.06051
-3.17797
-3.17954
-3.18079
-3.18183
-3.30056
-3.30188
-3.30297
-3.30393
-3.42354
-3.42472
-3.42574
-3.42667
-3.5469
-3.54798
-3.54896
-3.54986
-3.67056
-3.67157
-3.6725
-3.67338
-3.79448
-3.79541
-3.79629
-3.79713
-3.91861
-3.91948
-3.9203
-3.92109
-4.04293
-4.04373
-4.0445
-4.04525
-4.1674
-4.16814
-4.16885
-4.16954
-4.292
-4.29267
-4.29332
-4.29396
-4.4167
-4.41731
-4.4179
-4.41847
-4.54149
-4.54203
-4.54256
-4.54308
-4.66635
-4.66683
-4.6673
-4.66776
-4.79127
-4.79169
-4.79211
-4.79251
-4.91624
-4.91661
-4.91697
-4.91732
-5.04125
-5.04156
-5.04187
-5.04217
-5.16628
-5.16654
-5.1668
-5.16705
-5.29134
-5.29154
-5.29175
-5.29195
-5.4164
-5.41655
-5.41671
-5.41686
-5.54147
-5.54157
-5.54167
-5.54177
-5.66653
-5.66658
-5.66663
-5.66668
647.748
644.867
650.385
654.778
659.417
662.926
663.692
661.75
664.335
672.386
679.953
680.811
678.005
674.622
661.78
653.067
648.047
642.383
647.769
524.567
532.139
541.677
538.662
534.88
539.758
540.195
538.526
540.27
543.11
548.238
551.33
552.399
546.075
534.397
527.304
524.222
524.463
532.502
411.878
423.504
431.953
431.561
429.29
430.238
430.894
430.839
431.125
431.612
430.508
430.051
430.154
424.78
421.066
421.465
424.496
428.885
432.944
329.52
336.084
341.197
343.889
345.557
344.542
343.687
343.178
341.352
338.931
334.735
331.114
330.36
332.269
336.111
341.053
346.083
351.189
353.916
266.037
269.062
270.478
272.65
274.996
274.732
273.81
270.879
264.832
259.182
256.363
255.54
257.284
262.919
267.87
271.534
275.187
279.261
281.983
203.351
206.929
208.205
209.654
211.275
211.739
209.256
203.92
197.062
192.462
190.326
191.523
195.048
199.123
202.11
203.617
204.803
206.48
207.703
139.376
143.921
146.978
148.657
149.773
149.823
145.645
138.513
132.419
128.93
128.241
130.003
133.121
135.99
137.45
137.172
135.697
134.591
133.913
74.4693
78.2533
83.3123
86.7776
87.9096
85.933
80.4231
72.5069
67.1654
65.3527
66.7054
69.1255
71.7554
74.0193
75.0718
74.4017
72.1064
69.0534
68.9283
22.1675
24.2245
27.9543
31.076
31.8218
28.9468
23.5679
18.4361
15.9088
16.8009
19.1311
20.7036
22.0883
23.7301
25.0593
25.5036
24.4474
22.4838
22.4335
0.0664922
0.83677
1.56949
2.15202
2.21071
1.23387
0.102551
-0.623461
-0.910068
-0.347448
0.00045007
-0.0982692
0.301026
0.818612
1.43486
1.66854
1.83128
2.22487
2.49264
-1.7526
-1.72707
-1.69143
-1.67763
-1.70426
-1.72466
-1.72345
-1.74782
-1.83167
-1.89557
-1.96597
-2.05618
-2.05001
-2.03577
-2.05227
-2.05319
-2.02658
-1.97916
-1.93437
-1.89393
-1.87878
-1.86946
-1.87669
-1.88323
-1.88748
-1.89839
-1.92288
-1.96036
-1.99865
-2.0264
-2.06368
-2.10246
-2.12609
-2.15234
-2.14632
-2.10949
-2.05708
-2.03237
-2.02889
-2.02146
-2.01763
-2.01984
-2.02621
-2.03637
-2.05199
-2.06662
-2.08585
-2.10844
-2.14016
-2.18911
-2.2208
-2.2268
-2.22329
-2.21173
-2.1786
-2.14239
-2.1262
-2.16205
-2.15713
-2.15777
-2.16118
-2.16686
-2.17059
-2.17334
-2.18235
-2.19867
-2.218
-2.23727
-2.25543
-2.26651
-2.27881
-2.28335
-2.28092
-2.26521
-2.24408
-2.232
-2.29071
-2.29038
-2.29629
-2.29935
-2.30071
-2.30243
-2.30251
-2.31112
-2.32529
-2.34
-2.35294
-2.36681
-2.3758
-2.37598
-2.37682
-2.3763
-2.36977
-2.35715
-2.34895
-2.42259
-2.42823
-2.43561
-2.43612
-2.43602
-2.43802
-2.4421
-2.45273
-2.46668
-2.4796
-2.4873
-2.49171
-2.49228
-2.48814
-2.48711
-2.48679
-2.48191
-2.47305
-2.46575
-2.55889
-2.56432
-2.56685
-2.5667
-2.56876
-2.57629
-2.58773
-2.59741
-2.60355
-2.60854
-2.61084
-2.6109
-2.60798
-2.60372
-2.60125
-2.59927
-2.59405
-2.58659
-2.57961
-2.69379
-2.69438
-2.69289
-2.69356
-2.69727
-2.70846
-2.72509
-2.73278
-2.73122
-2.73099
-2.73103
-2.72987
-2.72669
-2.72174
-2.71688
-2.71218
-2.70611
-2.69904
-2.69414
-2.82036
-2.81931
-2.81795
-2.8191
-2.82316
-2.83282
-2.84681
-2.85407
-2.85522
-2.85442
-2.85418
-2.85291
-2.8495
-2.84357
-2.83553
-2.828
-2.82109
-2.81451
-2.81141
-2.9411
-2.94159
-2.9421
-2.94419
-2.94804
-2.95492
-2.96432
-2.97105
-2.97437
-2.97537
-2.97529
-2.97421
-2.9707
-2.96445
-2.9562
-2.94711
-2.93984
-2.93453
-2.93223
-3.06206
-3.06372
-3.06533
-3.06811
-3.07189
-3.07711
-3.08374
-3.08905
-3.09211
-3.09353
-3.0928
-3.09072
-3.08736
-3.08212
-3.07568
-3.06744
-3.06075
-3.0573
-3.05562
-3.18346
-3.18569
-3.18796
-3.19069
-3.19412
-3.19832
-3.20336
-3.20759
-3.21005
-3.21092
-3.21013
-3.20766
-3.20415
-3.19955
-3.19425
-3.1881
-3.1837
-3.18072
-3.1798
-3.30551
-3.30792
-3.31036
-3.31288
-3.3157
-3.31891
-3.32245
-3.32562
-3.32789
-3.32892
-3.32833
-3.32622
-3.32271
-3.31855
-3.31399
-3.30992
-3.30695
-3.30495
-3.30397
-3.42821
-3.43057
-3.43289
-3.43513
-3.43745
-3.43991
-3.44246
-3.44481
-3.44666
-3.44767
-3.44745
-3.44591
-3.4432
-3.43976
-3.436
-3.43285
-3.43011
-3.42889
-3.42787
-3.55136
-3.55357
-3.5557
-3.55771
-3.55969
-3.56169
-3.56373
-3.56565
-3.56721
-3.56814
-3.56818
-3.56719
-3.5652
-3.56246
-3.55932
-3.55645
-3.55395
-3.55245
-3.55181
-3.67483
-3.67688
-3.67884
-3.6807
-3.68251
-3.68429
-3.68603
-3.68763
-3.68896
-3.68984
-3.69007
-3.6895
-3.68808
-3.68592
-3.68326
-3.68056
-3.67825
-3.67678
-3.67614
-3.79853
-3.80045
-3.80229
-3.80402
-3.80568
-3.80728
-3.80881
-3.8102
-3.81138
-3.81223
-3.8126
-3.81236
-3.81138
-3.80968
-3.80749
-3.80511
-3.80292
-3.80153
-3.80079
-3.92241
-3.92422
-3.92592
-3.92752
-3.92905
-3.9305
-3.93188
-3.93314
-3.93422
-3.93504
-3.93551
-3.9355
-3.93487
-3.93357
-3.93172
-3.92959
-3.92773
-3.92642
-3.92565
-4.04648
-4.04815
-4.04971
-4.05119
-4.05259
-4.05392
-4.05517
-4.05633
-4.05733
-4.05813
-4.05865
-4.05879
-4.05841
-4.05744
-4.05593
-4.0541
-4.05247
-4.05132
-4.0506
-4.17069
-4.17221
-4.17365
-4.175
-4.17628
-4.1775
-4.17866
-4.17972
-4.18065
-4.18141
-4.18194
-4.18216
-4.18197
-4.18126
-4.18004
-4.17851
-4.17712
-4.17612
-4.1755
-4.295
-4.2964
-4.29771
-4.29894
-4.30012
-4.30123
-4.30229
-4.30326
-4.30412
-4.30482
-4.30533
-4.30559
-4.30551
-4.305
-4.30404
-4.30281
-4.30166
-4.30079
-4.30026
-4.41942
-4.42069
-4.42188
-4.423
-4.42407
-4.42508
-4.42604
-4.42692
-4.42771
-4.42835
-4.42881
-4.42906
-4.42904
-4.42867
-4.42794
-4.42699
-4.42608
-4.42535
-4.42485
-4.54393
-4.54507
-4.54614
-4.54716
-4.54812
-4.54903
-4.5499
-4.55069
-4.55139
-4.55197
-4.55237
-4.55259
-4.55258
-4.55229
-4.55175
-4.55107
-4.55039
-4.54983
-4.54939
-4.66852
-4.66954
-4.6705
-4.6714
-4.67226
-4.67307
-4.67384
-4.67455
-4.67517
-4.67567
-4.67603
-4.6762
-4.67618
-4.67593
-4.67553
-4.6751
-4.67463
-4.67424
-4.67388
-4.79318
-4.79408
-4.79493
-4.79573
-4.79648
-4.7972
-4.79787
-4.79849
-4.79903
-4.79947
-4.79977
-4.79992
-4.79992
-4.79972
-4.79945
-4.79916
-4.79885
-4.79857
-4.79832
-4.91791
-4.91869
-4.91943
-4.92013
-4.92078
-4.9214
-4.92198
-4.92251
-4.92297
-4.92335
-4.92361
-4.92375
-4.92379
-4.92372
-4.92349
-4.92329
-4.92309
-4.92286
-4.92275
-5.04267
-5.04335
-5.04398
-5.04458
-5.04514
-5.04566
-5.04615
-5.04659
-5.04698
-5.0473
-5.04752
-5.04766
-5.04772
-5.04776
-5.04767
-5.0475
-5.04733
-5.04713
-5.0471
-5.16747
-5.16804
-5.16858
-5.16908
-5.16955
-5.16998
-5.17038
-5.17074
-5.17105
-5.17131
-5.17149
-5.17161
-5.17167
-5.17173
-5.17177
-5.1717
-5.17155
-5.17141
-5.1714
-5.29229
-5.29275
-5.29319
-5.29361
-5.29399
-5.29434
-5.29466
-5.29494
-5.29517
-5.29536
-5.2955
-5.29558
-5.29562
-5.29567
-5.29574
-5.29579
-5.29574
-5.29563
-5.2956
-5.41712
-5.41748
-5.41783
-5.41815
-5.41845
-5.41873
-5.41897
-5.41918
-5.41935
-5.41947
-5.41954
-5.41957
-5.41958
-5.41958
-5.41963
-5.41971
-5.41974
-5.41965
-5.41961
-5.54195
-5.54221
-5.54246
-5.5427
-5.54293
-5.54313
-5.5433
-5.54344
-5.54355
-5.54361
-5.54362
-5.54359
-5.54353
-5.54347
-5.54348
-5.54357
-5.5436
-5.54357
-5.54353
-5.66677
-5.66691
-5.66706
-5.66721
-5.66736
-5.66748
-5.66758
-5.66766
-5.66771
-5.66772
-5.66768
-5.66759
-5.66747
-5.66733
-5.66728
-5.66746
-5.66752
-5.66754
-5.66756
)
;

boundaryField
{
    leftWall
    {
        type            calculated;
        value           nonuniform List<scalar> 
50
(
5785.24
4985.89
4186.4
3386.35
2583.65
1782.83
1061.92
672.246
540.412
413.219
288.95
183.903
108.91
47.2863
8.26373
0.246956
-0.715493
-1.4118
-1.68551
-1.80231
-1.92352
-2.05058
-2.17844
-2.30878
-2.43993
-2.57127
-2.70258
-2.83371
-2.96461
-3.09523
-3.22557
-3.35564
-3.48545
-3.61504
-3.74443
-3.87365
-4.00273
-4.1317
-4.26058
-4.38938
-4.51804
-4.64652
-4.77474
-4.90265
-5.03026
-5.15763
-5.28485
-5.41201
-5.53919
-5.66647
)
;
    }
    rightWall
    {
        type            calculated;
        value           nonuniform List<scalar> 
50
(
2718.85
1955.15
1331.77
1010.49
910.665
857.034
798.775
739.443
647.769
532.502
432.944
353.916
281.983
207.703
133.913
68.9283
22.4335
2.49264
-1.93437
-2.03237
-2.1262
-2.232
-2.34895
-2.46575
-2.57961
-2.69414
-2.81141
-2.93223
-3.05562
-3.1798
-3.30397
-3.42787
-3.55181
-3.67614
-3.80079
-3.92565
-4.0506
-4.1755
-4.30026
-4.42485
-4.54939
-4.67388
-4.79832
-4.92275
-5.0471
-5.1714
-5.2956
-5.41961
-5.54353
-5.66756
)
;
    }
    lowerWall
    {
        type            calculated;
        value           nonuniform List<scalar> 
62
(
6183.39
6178.78
6166.97
6147.96
6119.66
6079.92
6026.9
5959.9
5879.57
5787.71
5687.73
5584.43
5482.78
5387.29
5301.97
5229.26
5169.92
5123.19
5087.88
5062.15
5044.34
5033.17
5026.71
4628.58
3831.35
3032.49
2233.11
1451.76
941.844
774.779
711.296
687.599
691.559
697.007
702.521
2976.06
2221.37
1563.73
1115
921.512
863.583
802.657
741.121
3358.75
3339.69
3296.85
3246.16
3195.98
3151.81
3125.77
3118.09
3111.46
3085.06
3043.2
2997.23
2965.43
2957.81
2972.79
3005.62
3043.85
3077.31
3102.3
)
;
    }
    atmosphere
    {
        type            calculated;
        value           nonuniform List<scalar> 
46
(
-5.73001
-5.72998
-5.72967
-5.72938
-5.72917
-5.72907
-5.72905
-5.72904
-5.72906
-5.72907
-5.72907
-5.72907
-5.72907
-5.72906
-5.72905
-5.72905
-5.72904
-5.72904
-5.72904
-5.72904
-5.72904
-5.72904
-5.72904
-5.72905
-5.72905
-5.72905
-5.72907
-5.72911
-5.72921
-5.72932
-5.72943
-5.72953
-5.72962
-5.72969
-5.72975
-5.72978
-5.72978
-5.72973
-5.72964
-5.72949
-5.72929
-5.7291
-5.72954
-5.72949
-5.72947
-5.72944
)
;
    }
    defaultFaces
    {
        type            empty;
    }
}


// ************************************************************************* //
