/*--------------------------------*- C++ -*----------------------------------*\
| =========                 |                                                 |
| \\      /  F ield         | OpenFOAM: The Open Source CFD Toolbox           |
|  \\    /   O peration     | Version:  2312                                  |
|   \\  /    A nd           | Website:  www.openfoam.com                      |
|    \\/     M anipulation  |                                                 |
\*---------------------------------------------------------------------------*/
FoamFile
{
    version     2.0;
    format      ascii;
    arch        "LSB;label=32;scalar=64";
    class       volScalarField;
    location    "4.35";
    object      p_rgh;
}
// * * * * * * * * * * * * * * * * * * * * * * * * * * * * * * * * * * * * * //

dimensions      [1 -1 -2 0 0 0 0];

internalField   nonuniform List<scalar> 
2268
(
6183.39
6178.78
6166.97
6147.96
6119.66
6079.92
6026.9
5959.9
5879.57
5787.71
5687.73
5584.43
5482.78
5387.29
5301.97
5229.26
5169.92
5123.19
5087.88
5062.15
5044.34
5033.17
5026.71
6180.34
6176.68
6166.55
6148.84
6121.67
6082.76
6030.1
5962.93
5882.13
5789.52
5688.43
5583.97
5481.24
5384.8
5298.9
5226.01
5166.82
5120.36
5085.49
5060.19
5042.73
5031.71
5025.77
6177.15
6174.62
6166.55
6150.94
6125.81
6088.5
6036.62
5969.11
5887.29
5793.14
5689.89
5583.22
5478.41
5380.12
5293.08
5219.76
5160.82
5114.76
5080.75
5056.28
5039.48
5028.95
5023.24
6173.4
6172.22
6166.75
6154.26
6132.31
6097.5
6046.67
5978.48
5895.01
5798.27
5691.49
5581.67
5474.06
5373.21
5284.69
5210.79
5152.24
5106.66
5073.95
5050.72
5034.91
5025.22
5017
6167
6167.44
6165.55
6157.59
6140.37
6109.72
6060.84
5991.58
5905.25
5804.3
5692.14
5578.36
5467.44
5363.33
5272.9
5196.94
5111.62
5035.11
4982.36
4935
4887.26
4865.05
4854.45
6160.17
6159.61
6161.04
6160.17
6149.73
6124.26
6078.15
6007.78
5915.17
5770.63
5453.63
5068.75
4639.23
4154.1
3685.05
3247.19
2988.55
2766.92
2623.73
2536.54
2497.81
2460.39
2354.37
5277.64
5269.09
5298.35
5323.87
5309.71
5201.32
4958.58
4557.21
3930.57
3145.08
2489.75
1979.71
1571.3
1322.99
1200.48
1187.18
1135
1133.57
1135.02
1130.1
1126.36
1138.47
1256.7
1655.22
1663.26
1705.67
1731.3
1720.37
1704.97
1610.66
1352.04
1137.74
1101.67
1108.38
1115.5
1123.44
1130.22
1130.62
1130.1
1132.88
1137.97
1140.45
1142.78
1142.68
1134.64
1141.17
3358.75
3339.69
3296.85
3246.16
3195.98
3151.81
3125.77
3118.09
3111.46
3085.06
3043.2
2997.23
2965.43
2957.81
2972.79
3005.62
3043.85
3077.31
3102.3
3344.86
3344.12
3299.07
3245.81
3196.71
3146.44
3114.06
3096.3
3098.26
3076.52
3034.4
2978.62
2928.82
2919.2
2941.78
2986.4
3031.57
3072.66
3105.34
3006.27
3073.44
3016.57
2870.77
2741.03
2641.76
2592.84
2630.02
2568.7
2511.61
2444.91
2323.54
2252.94
2242.64
2282.15
2365.12
2461.4
2534.29
2567.64
2286
1904.71
1696.82
1597.53
1518.32
1444.11
1416.25
1419.03
1542.94
1458.48
1297.82
1231.43
1253.47
1236.9
1222.67
1265.16
1356.11
1475.31
1551.87
1174.56
1180.38
1188.23
1220.64
1249.09
1286.16
1301.03
1317.98
1238.76
1177.02
1163.93
1199.73
1154.52
1166.26
1191.89
1180.71
1175.06
1167.09
1128.23
1175.56
1180.73
1179.73
1188.01
1194.08
1191.84
1202.06
1262.73
1277.68
1215.5
1190.02
1210.43
1191.81
1183.92
1199.7
1185.97
1186.4
1175.32
1157.58
1187.42
1179.55
1172.81
1188.32
1194.46
1186.16
1172.9
1197.54
1263.52
1247.83
1214.1
1217.03
1213.97
1208.11
1223.12
1220.65
1195.26
1178.76
1167.1
1182.97
1148.4
1160.21
1192
1195.9
1175.12
1176.76
1202.81
1246.65
1227.5
1219.12
1223.88
1215.96
1207.9
1211.09
1217.3
1181.9
1183.31
1164.95
1073.54
1072.35
1070.03
1069.31
1070.41
1071.56
1074.17
1080.58
1090.77
1099.33
1106.44
1113.31
1120.04
1125.99
1131.1
1132.2
1135.24
1141.41
1143.83
1145.93
1149.37
1151.44
1150.79
1070.72
1071.38
1070.83
1070.76
1072.19
1074.9
1078.8
1085.41
1092.71
1099.19
1105.1
1110.55
1116.61
1122.96
1128.46
1133.02
1144.21
1143.54
1140.75
1139.09
1140.77
1149.95
1148.67
1046.05
1060.08
1062.67
1062.64
1062.38
1064.86
1067.13
1074.36
1076.73
1082.71
1086.58
1073.77
1079.65
1084.04
1085.81
1057.41
1001.79
939.068
916.463
912.865
907.966
910.079
911.039
810.271
813.49
811.846
802.182
782.122
784.112
797.961
820.773
852.095
860.066
841.125
807.697
773.725
758.77
753.007
758.431
742.152
762.456
757.485
763.053
769.644
775.935
782.3
615.185
617.972
632.182
646.335
655.836
652.109
642.167
629.402
610.779
634.301
666.188
672.808
684.361
688.85
664.422
679.352
735.103
739.477
747.963
755.143
759.933
763.686
770.334
566.361
571.843
587.168
602.239
618.054
632.531
641.737
645.983
650.699
654.944
667.47
675.929
685.08
694.489
698.332
704.892
726.96
738.269
747.991
756.573
762.611
767.428
771.914
161.224
167.942
178.603
207.536
249.855
300.299
354.201
412.261
473.612
518.17
564.653
617.061
661.042
698.872
712.849
720.66
731.009
739.831
749.624
757.385
763.765
769.387
773.789
13.1173
11.8243
9.02303
8.25401
7.34503
4.08278
8.90057
10.3938
10.3797
24.6414
54.7355
101.298
166.842
245.489
358.385
471.008
578.873
664.58
716.825
754.18
775.535
778.14
779.645
13.307
7.08938
0.903671
0.301128
0.233372
0.218463
0.199607
0.200176
0.218391
0.266899
0.325495
0.420192
1.36854
6.0377
12.0526
29.6151
73.4388
144.972
231.632
303.65
367.069
414.175
429.407
7.09443
0.476452
0.190705
0.184563
0.188432
0.189458
0.184783
0.180094
0.181384
0.190043
0.188901
0.200555
0.218179
0.24373
0.296532
0.550624
1.84152
3.33338
6.11794
12.12
14.8311
16.4705
17.6571
1.11141
0.175417
0.153212
0.163549
0.169892
0.173538
0.172473
0.179769
0.210346
0.237233
0.21506
0.192886
0.203538
0.196509
0.198423
0.193552
0.17185
0.155011
0.889652
0.503824
0.45321
0.251053
0.137241
0.178476
0.119976
0.135718
0.147069
0.153817
0.158779
0.163016
0.222522
0.224511
0.222732
0.21996
0.228142
0.22807
0.208727
0.143802
0.111387
0.0822385
0.063452
0.0355677
0.0420752
0.0584187
0.0400831
0.0349203
0.112336
0.116225
0.126211
0.133412
0.140113
0.143654
0.164719
0.193638
0.20095
0.201263
0.204653
0.211975
0.21643
0.181235
0.105589
0.0588008
0.0390171
0.030223
0.032507
0.0582751
0.0518842
0.00938069
-0.00775165
0.110494
0.113875
0.118814
0.12328
0.126425
0.127353
0.128562
0.125515
0.129829
0.138985
0.156043
0.164069
0.158315
0.145089
0.102434
0.0619589
0.0489518
0.0881812
0.107422
0.0961904
0.0584166
0.00826871
-0.0176259
0.10783
0.109178
0.111488
0.113605
0.114904
0.114942
0.113295
0.110643
0.106562
0.101371
0.0952585
0.0933897
0.0896331
0.100681
0.0894454
0.0624627
0.0702573
0.0974822
0.106533
0.0801754
0.0050329
-0.0216413
-0.0176838
0.102682
0.103217
0.10423
0.105095
0.105413
0.104718
0.103081
0.100052
0.0959676
0.0908242
0.0847661
0.0758377
0.0656746
0.0542232
0.0445437
0.0363287
0.0369758
0.0617342
0.0929991
0.044983
-0.0182696
-0.025268
-0.0171093
0.0967226
0.0968726
0.0971889
0.0973079
0.096932
0.095869
0.0938681
0.0908601
0.0868418
0.0817036
0.0754315
0.0676606
0.0585168
0.0481335
0.0372887
0.0266988
0.0162795
0.00855059
0.0407977
0.0640388
0.0187977
-0.0220632
-0.0208872
0.0905862
0.0904851
0.0904078
0.0900498
0.089263
0.0878781
0.0857143
0.0826783
0.0787298
0.0737953
0.0678474
0.0608298
0.0527548
0.0437951
0.0343305
0.0247009
0.0151735
0.00611844
0.000273345
0.0315495
0.0364534
-0.01187
-0.0216192
0.0844782
0.0842446
0.0839179
0.0832803
0.0822326
0.0806283
0.0783493
0.07532
0.071494
0.06685
0.0613741
0.0550434
0.0479193
0.0401497
0.0319776
0.0236317
0.0153391
0.00733671
-0.000157726
-0.00360853
0.00743127
0.00129838
-0.0191384
0.0785387
0.0782184
0.0777415
0.0769325
0.0757229
0.0740041
0.0716936
0.0687325
0.0650943
0.0607674
0.0557492
0.050054
0.0437467
0.0369494
0.0298369
0.0225744
0.0153331
0.00829421
0.00160103
-0.00447859
-0.00893885
-0.0027127
-0.014312
0.0728435
0.0724647
0.0718975
0.0709902
0.0696944
0.0679354
0.0656541
0.062811
0.0593882
0.0553819
0.0508036
0.0456829
0.0400824
0.0340991
0.0278616
0.0214961
0.015142
0.00893948
0.00301945
-0.00249139
-0.00741376
-0.0116584
-0.0129204
0.0674174
0.0670012
0.0663844
0.0654282
0.0641034
0.062357
0.0601481
0.0574507
0.054255
0.0505665
0.0464037
0.0418007
0.0368137
0.0315216
0.0260222
0.0204174
0.0148169
0.00933287
0.00407629
-0.000842684
-0.00531749
-0.00928008
-0.0120503
0.0622758
0.0618329
0.061192
0.0602211
0.0589053
0.0572073
0.0550992
0.0525648
0.0496024
0.0462222
0.0424461
0.0383088
0.0338594
0.0291623
0.0242957
0.0193435
0.0143928
0.00953442
0.0048596
0.000456738
-0.00359546
-0.00724038
-0.0103538
0.0574027
0.0569442
0.0562977
0.0553351
0.054054
0.0524284
0.0504397
0.0480799
0.0453515
0.0422668
0.0388487
0.0351307
0.0311559
0.0269777
0.0226597
0.0182717
0.0138846
0.00957222
0.00540888
0.00146521
-0.00219797
-0.00553812
-0.00853857
0.0527871
0.0523154
0.0516746
0.0507357
0.0495069
0.0479702
0.046114
0.0439356
0.0414392
0.0386353
0.035547
0.0322073
0.0286547
0.0249335
0.021096
0.0172
0.0133047
0.00947072
0.00575808
0.00222369
-0.00108419
-0.00413143
-0.0069108
0.048396
0.047919
0.0472925
0.0463893
0.0452258
0.0437904
0.0420748
0.0400811
0.0378106
0.0352723
0.0324895
0.0294914
0.026318
0.0230031
0.0195902
0.0161275
0.0126647
0.00925205
0.00593864
0.0027707
-0.000213032
-0.00298576
-0.00553662
0.044215
0.0437267
0.0431215
0.0422633
0.0411773
0.0398538
0.0382818
0.0364681
0.0344122
0.0321251
0.0296278
0.0269495
0.0241165
0.0211662
0.0181321
0.0150543
0.0119749
0.00893593
0.00597819
0.0031395
0.000451188
-0.00206414
-0.0043964
0.0401999
0.0397079
0.0391302
0.0383277
0.0373352
0.0361307
0.034706
0.0330553
0.0312099
0.0291633
0.0269331
0.0245452
0.0220275
0.019407
0.0167142
0.0139815
0.0112449
0.00853994
0.00590102
0.00335951
0.00094106
-0.00133626
-0.00346184
0.0363285
0.0358315
0.0352895
0.0345739
0.0337708
0.0327445
0.0313477
0.0298136
0.0281741
0.0263597
0.0243823
0.0222656
0.0200349
0.0177156
0.0153323
0.0129115
0.0104837
0.00807957
0.00572843
0.00345655
0.00128486
-0.000771589
-0.00270351
0.0325518
0.0320788
0.0316734
0.0314717
0.0314168
0.0313838
0.0288065
0.0267149
0.0252802
0.0236934
0.0219578
0.0200958
0.0181306
0.0160869
0.0139846
0.0118472
0.00969967
0.00756844
0.00547878
0.00345295
0.00150815
-0.000343817
-0.00209405
0.0289063
0.0284569
0.0286183
0.0297574
0.030877
0.0299345
0.0271238
0.0237403
0.0225126
0.0211513
0.0196485
0.0180267
0.0163081
0.014516
0.012671
0.0107923
0.00890034
0.00701825
0.0051675
0.00336784
0.00163278
-2.97222e-05
-0.0016071
0.0253079
0.0249666
0.0259265
0.0275897
0.0281489
0.0267525
0.0229274
0.0208745
0.0198718
0.0187298
0.0174499
0.0160538
0.0145641
0.0130036
0.0113936
0.00975071
0.00809274
0.00643895
0.00480722
0.00321547
0.00167489
0.000192723
-0.00122145
0.0219424
0.0216453
0.022942
0.0246756
0.0249431
0.0216798
0.0189583
0.0181556
0.0173671
0.0164325
0.015362
0.0141759
0.0128975
0.0115499
0.0101539
0.0087262
0.00728274
0.00583865
0.00440982
0.00301087
0.00165155
0.000338286
-0.000920103
0.0186907
0.0183882
0.0196762
0.0212617
0.0188078
0.0167212
0.0162311
0.0156249
0.0150086
0.0142654
0.0133865
0.0123925
0.0113074
0.0101544
0.00895391
0.00772315
0.00647603
0.00522545
0.00398455
0.00276525
0.001576
0.000422692
-0.000688188
0.0157235
0.0154054
0.0169576
0.0173152
0.0144175
0.0139878
0.0136944
0.0132547
0.0128054
0.0122325
0.0115236
0.0107019
0.00979195
0.0088165
0.00779504
0.00674429
0.00567697
0.00460524
0.00353913
0.00248823
0.00145929
0.000456932
-0.000511502
0.0129682
0.0126717
0.0142207
0.0136207
0.0115251
0.0115756
0.0113346
0.0110715
0.0107643
0.0103327
0.00976895
0.00909904
0.00834655
0.00753283
0.00667576
0.00579034
0.00488869
0.00398293
0.00308004
0.00218748
0.00131065
0.000453222
-0.000379402
0.0107584
0.0102787
0.0116592
0.0105453
0.00936843
0.00940706
0.00924071
0.00908779
0.00887981
0.00855724
0.00811252
0.0075745
0.00696331
0.00629748
0.0055923
0.00486046
0.00411284
0.00336217
0.00261244
0.00186984
0.00113789
0.000418637
-0.000281936
0.00857698
0.00816334
0.00864338
0.00801968
0.00746851
0.00743594
0.00737226
0.00728033
0.00713065
0.00688721
0.00653873
0.00611501
0.00563147
0.0051022
0.00453928
0.00395308
0.00335324
0.00274576
0.0021405
0.00154044
0.000947747
0.000363081
-0.000210456
0.00697972
0.00632835
0.00636962
0.00603165
0.00583028
0.00572842
0.00566223
0.00559481
0.00547841
0.00529182
0.00502862
0.00470616
0.00433945
0.00393772
0.0035092
0.00306125
0.00260056
0.00213334
0.00166669
0.00120388
0.000745978
0.000291974
-0.000155625
0.00509834
0.00473508
0.00457459
0.00443064
0.00429529
0.00415472
0.00404004
0.00397858
0.00388825
0.00375012
0.00356321
0.00333573
0.0030783
0.00279699
0.0024965
0.00218118
0.00185524
0.00152491
0.00119307
0.00086333
0.000537242
0.000213453
-0.000109962
0.00312675
0.00302801
0.00297096
0.00282618
0.00270572
0.00255196
0.00240001
0.0023941
0.00233741
0.00224764
0.00213194
0.00199528
0.00184258
0.00167677
0.00149993
0.00131382
0.00111976
0.000921385
0.000720312
0.000520502
0.000324501
0.000129303
-6.86258e-05
0.000933977
0.00101441
0.000970366
0.000947387
0.000919664
0.000899678
0.000927671
0.000851713
0.000801454
0.000754763
0.000707492
0.000659224
0.00060958
0.000558055
0.000504479
0.000449325
0.000393843
0.000329394
0.000252027
0.000179844
0.000111699
4.4176e-05
-2.85682e-05
1154.47
1154.04
1161.34
1168.64
1145.47
1149.52
1163.74
1188.59
899.546
897.915
916.408
961.047
785.009
805.991
813.075
793.004
774.503
788.27
795.674
786.853
774.393
779.961
801.51
802.092
775.037
775.052
777.661
787.063
779.514
776.698
776.78
780.92
434.893
466.733
478.786
486.119
17.1393
16.6288
17.1558
26.8169
0.180572
0.278054
0.7912
2.42032
0.0378257
0.0341157
0.0491598
0.0736254
-0.00585463
-0.00443194
0.00396089
0.0241383
-0.0121716
-0.00946967
-0.00679381
-0.00208314
-0.0126015
-0.0100982
-0.00788047
-0.00269993
-0.013651
-0.00817729
0.0645611
0.267556
-0.0168676
0.0113766
0.318812
0.356688
-0.0237222
-0.00939964
0.181196
0.300016
-0.0231712
-0.0186424
-0.00431007
-0.00372149
-0.0204896
-0.0220864
-0.0248658
-0.0267779
-0.0170227
-0.0194211
-0.0213806
-0.0226828
-0.0147759
-0.0165642
-0.0178239
-0.0188214
-0.012644
-0.0139939
-0.0150406
-0.0159647
-0.010566
-0.0117341
-0.0127525
-0.0136557
-0.00874982
-0.00983063
-0.0108053
-0.0117099
-0.00722678
-0.0082326
-0.00916436
-0.0100388
-0.00595009
-0.00688544
-0.00776638
-0.0086057
-0.00488839
-0.0057552
-0.0065795
-0.00737203
-0.00401078
-0.00481186
-0.00558229
-0.0063305
-0.00328838
-0.00402639
-0.0047406
-0.00543442
-0.00269238
-0.00336636
-0.00401937
-0.0046546
-0.00219887
-0.00280736
-0.00339894
-0.00397162
-0.00179355
-0.00233731
-0.00286585
-0.00338287
-0.00146152
-0.00194384
-0.00241378
-0.0028733
-0.00118995
-0.00161376
-0.0020268
-0.00243212
-0.000965075
-0.0013325
-0.00169223
-0.00204516
-0.000778527
-0.00109136
-0.00139822
-0.00170086
-0.00061917
-0.000878285
-0.00113427
-0.0013868
-0.000478629
-0.000684408
-0.000888778
-0.00109247
-0.000346756
-0.000499769
-0.000653874
-0.000808127
-0.000218829
-0.000318263
-0.000420701
-0.000525123
-9.20701e-05
-0.000138722
-0.000188217
-0.000237313
1175.16
1141.33
1153.68
1179.24
1194.52
1162.77
1192.85
1190.63
1200.85
1245.17
1273.67
1255.76
1214.67
1211.6
1199.68
1177.65
1192.19
1185.79
1163.81
1182.71
1160.24
1149.98
1168.59
1173.03
1152.82
1127.06
1131.53
1218.22
1259.81
1289.89
1309.56
1236.6
1220.11
1178.83
1158.27
1109.65
1105.99
1143.53
1028.3
1061.82
1080.97
1061.91
991.784
1000.82
1032.29
996.846
1035.81
1042.39
1125.85
1211.25
1222.32
1136.43
1025.3
931.203
908.394
916.316
949.197
792.408
844.715
918.247
924.833
872.886
847.33
834.751
856.897
972.921
1050.61
1022.9
1006.22
998.18
846.67
795.293
808.37
815.172
822.401
828.542
782.257
800.201
813.935
829.907
825.002
770.534
778.345
795.888
840.684
851.741
869.838
830.437
777.196
779.51
780.154
782.973
788.604
806.516
816.631
800.593
797.765
796.789
800.34
793.574
743.075
730.565
796.436
801.231
792.855
790.181
789.932
787.814
780.86
781.188
781.733
799.55
819.023
891.397
812.955
839.383
800.525
797.545
792.671
786.145
754.104
761.734
763.423
771.22
777.242
788.711
787.612
782.074
781.744
784.995
808.875
883.379
900.559
815.102
852.062
845.342
805.344
795.422
792.333
788.179
775.598
766.425
773.176
785.108
801.065
808.635
799.044
796.135
798.054
834.748
897.169
899.219
515.002
530.438
605.584
658.831
668.252
629.263
544.265
454.751
404.671
405.717
468.614
513.602
538.219
574.454
593.909
593.073
540.392
439.34
446.569
44.2071
66.4878
86.0512
100.135
103.024
77.5094
45.8015
25.4647
18.7697
40.9353
60.4081
63.3724
68.8734
79.7226
93.934
99.1312
102.443
113.843
121.689
1.48891
0.409854
0.547565
2.05151
1.35473
0.453856
0.242391
0.374453
0.440271
-0.093948
-0.157802
-0.167338
-0.0678859
-0.237626
-0.265518
-0.266649
-0.23808
-0.00575316
0.263525
0.0327413
0.0467613
0.0879909
0.0433961
0.0315561
0.0259561
0.0130714
-0.011904
-0.0179046
-0.0257326
-0.0499885
-0.121103
-0.180665
-0.205184
-0.234309
-0.228533
-0.173838
-0.0980782
-0.0966942
0.0186949
0.0340025
0.0963698
0.114303
0.0867425
0.0525539
0.0720687
0.0868667
0.0689854
-0.0141702
-0.0916072
-0.152089
-0.184051
-0.187942
-0.178027
-0.167921
-0.048768
0.115789
0.0289086
0.00490904
0.0139613
0.0717908
0.154429
0.165153
0.12604
0.0822733
0.00128861
-0.0152776
0.0297901
0.174799
0.243478
0.0675481
-0.110207
-0.11746
-0.0957439
0.120478
0.192312
0.201998
0.0343579
0.180057
0.196871
0.172775
0.132462
0.0630615
0.0659318
0.330802
0.453876
0.495301
0.481413
0.397243
0.145359
-0.0603928
-0.0845051
0.0486243
0.145145
0.205344
0.156131
0.286656
0.306227
0.10246
0.0547542
0.0183295
0.0385438
0.405826
0.583289
0.483262
0.363205
0.114752
0.0274853
-0.0102441
-0.02788
0.0137801
0.0865219
0.121881
0.167686
-0.0272527
0.350624
0.239974
-0.0210781
-0.0219562
-0.0220956
0.0763112
0.490504
0.550745
0.236564
-0.0243165
-0.0416896
-0.0420896
-0.0379563
-0.0343969
0.0382729
0.0481198
0.118399
0.0333359
-0.0352355
0.266169
0.14312
0.0437061
-0.00492226
-0.0224575
0.0235994
0.218985
0.161959
0.0459508
0.0689167
0.053037
0.0198959
0.0470443
0.100071
0.0529569
0.0428469
0.114055
0.0150504
-0.024574
-0.0151926
-0.0210327
0.0318076
0.0418715
0.0379623
0.00546906
-0.0250762
-0.0386249
0.0672809
0.100358
0.113628
0.170664
0.176064
0.15346
0.17015
0.0881265
0.139082
0.0690269
-0.0123258
-0.0287386
-0.0292345
-0.0255757
0.0175005
0.0256624
0.0106331
-0.0130351
-0.0325855
-0.0354847
0.0804872
0.0605262
0.0242909
0.0302464
0.0623747
0.170306
0.170526
0.141596
0.166755
0.0184396
-0.0243057
-0.0259864
-0.0277908
-0.0297998
-0.0177673
-0.0194636
0.0148836
0.0258137
0.0336506
0.0263947
0.0222018
-0.0150003
-0.0282462
0.0184546
0.0887117
0.14761
0.23754
0.144801
0.0278443
-0.0204959
-0.0228068
-0.0251246
-0.0279522
-0.0314233
-0.035277
-0.0362038
-0.0323007
0.0077711
0.023516
0.0198833
0.0132376
-0.0350028
-0.0322831
-0.0245067
0.129204
0.247908
0.140814
0.0175136
-0.0175467
-0.0199525
-0.0223796
-0.0249212
-0.0277987
-0.0310244
-0.0343644
-0.0371545
-0.0380113
-0.0295257
-0.0250467
-0.0286941
-0.0323487
-0.0299329
-0.0260903
0.105626
0.11325
0.139814
0.00328668
-0.0151984
-0.0175351
-0.0198282
-0.0220573
-0.0243735
-0.0268256
-0.0293637
-0.0317226
-0.0335589
-0.0342887
-0.0327864
-0.0307917
-0.0287467
-0.0260986
-0.0228725
0.0456091
0.0522716
0.00826512
-0.0061639
-0.0132074
-0.0154071
-0.0175224
-0.0195165
-0.0214689
-0.0234484
-0.0254571
-0.0273268
-0.0285706
-0.0289576
-0.0287101
-0.0278912
-0.0263107
-0.023904
-0.0207978
-0.000565109
0.0073822
-0.00985638
-0.00895265
-0.0114881
-0.0135413
-0.0154961
-0.0173474
-0.019143
-0.0209114
-0.0226294
-0.0241908
-0.0254285
-0.0261924
-0.0263793
-0.0258421
-0.0244872
-0.0223414
-0.0194087
-0.0145233
-0.0135678
-0.0100896
-0.0110127
-0.00999656
-0.0119226
-0.0137566
-0.0154875
-0.0171425
-0.0187374
-0.020255
-0.021639
-0.0227995
-0.0236142
-0.0239448
-0.0236703
-0.0226441
-0.0208389
-0.0182267
-0.0158132
-0.0114859
-0.0116876
-0.0108628
-0.00868422
-0.0104999
-0.0121994
-0.0137978
-0.0153182
-0.0167703
-0.0181405
-0.0193895
-0.0204553
-0.0212537
-0.0216823
-0.0216294
-0.020897
-0.0193341
-0.0174818
-0.0129477
-0.00995208
-0.0113047
-0.0108584
-0.00756633
-0.00923442
-0.010798
-0.0122692
-0.0136663
-0.014996
-0.0162485
-0.0173943
-0.0183861
-0.019162
-0.0196431
-0.0197355
-0.01922
-0.017894
-0.0165372
-0.0112118
-0.00935034
-0.0108068
-0.0105629
-0.00657616
-0.00810407
-0.00953739
-0.0108881
-0.0121704
-0.0133895
-0.0145384
-0.0155933
-0.0165159
-0.0172563
-0.0177526
-0.0179249
-0.017635
-0.0165968
-0.0155137
-0.0104819
-0.00982004
-0.0102707
-0.0103401
-0.00570057
-0.00709407
-0.00840271
-0.0096376
-0.0108102
-0.0119249
-0.0129761
-0.0139437
-0.0147946
-0.0154862
-0.0159676
-0.0161755
-0.0160299
-0.0153592
-0.0142886
-0.010607
-0.00992048
-0.0102086
-0.00983058
-0.00492518
-0.00618979
-0.00737864
-0.00850127
-0.00956695
-0.0105798
-0.0115349
-0.0124151
-0.0131916
-0.0138257
-0.014271
-0.014487
-0.0144146
-0.0139257
-0.0128688
-0.0116805
-0.010679
-0.00931421
-0.00860785
-0.00423725
-0.00537662
-0.00644849
-0.00746294
-0.00842364
-0.00933562
-0.0101943
-0.0109846
-0.0116811
-0.012247
-0.0126311
-0.0127718
-0.0127035
-0.012438
-0.0114436
-0.0106872
-0.00938889
-0.00880331
-0.00123726
-0.00363363
-0.0046508
-0.00560798
-0.00651238
-0.00736886
-0.00818042
-0.00894276
-0.00964245
-0.0102551
-0.0107474
-0.01107
-0.0110944
-0.0105813
-0.0105056
-0.00984993
-0.00758729
-0.00844523
-0.0079572
-8.87799e-05
-0.00310258
-0.00400216
-0.00484849
-0.00564599
-0.00639966
-0.00711184
-0.00777883
-0.0083876
-0.00891508
-0.00933154
-0.0095903
-0.0095458
-0.00808473
0.00297847
0.00310128
-0.00324635
-0.000133096
-0.00726019
0.00746052
-0.00263004
-0.00341581
-0.00415515
-0.00485013
-0.00550452
-0.00612012
-0.00669394
-0.00721485
-0.00766239
-0.00800701
-0.00821346
-0.0081513
-0.00699266
0.00501949
0.0105658
0.0071539
0.00316468
0.00057079
0.00865075
-0.00220217
-0.00287763
-0.00351368
-0.00411023
-0.00466928
-0.0051919
-0.00567587
-0.00611297
-0.00648631
-0.0067694
-0.00693337
-0.00691263
-0.00643265
-0.00263652
0.0114021
0.0153448
0.00950809
0.00459381
0.00750228
-0.00180672
-0.00237479
-0.00291102
-0.00341309
-0.0038811
-0.00431496
-0.00471277
-0.00506876
-0.00537058
-0.00559713
-0.00572425
-0.0057208
-0.00551958
-0.00476068
0.00173928
0.0142259
0.0165006
0.0131509
0.00860131
-0.00143209
-0.00189549
-0.00233502
-0.00274654
-0.00312818
-0.00347834
-0.00379478
-0.00407311
-0.00430537
-0.00447934
-0.00457848
-0.00457525
-0.00445393
-0.00424929
-0.0038053
0.00404759
0.0134404
0.00725412
0.00162501
-0.0010679
-0.00142848
-0.00177441
-0.0020998
-0.00240083
-0.00267428
-0.00291667
-0.00312346
-0.00328813
-0.00340163
-0.00345219
-0.00342455
-0.00330056
-0.00310514
-0.00291108
-0.00223143
-0.00189021
0.000247229
-0.00232772
-0.000704835
-0.000963352
-0.00121606
-0.00145645
-0.0016793
-0.00187985
-0.00205341
-0.00219467
-0.00229676
-0.00235157
-0.00234916
-0.00228021
-0.00212794
-0.0018878
-0.0017344
-0.00173377
-0.00171042
-0.00129198
-0.00175573
-0.000322813
-0.000467321
-0.000620318
-0.000771439
-0.00091239
-0.00103723
-0.00114112
-0.00121901
-0.00126459
-0.00127029
-0.00122716
-0.00112714
-0.000963663
-0.000741732
-0.00047873
-0.000525895
-0.000631975
-0.00067259
-0.000721345
)
;

boundaryField
{
    leftWall
    {
        type            fixedFluxPressure;
        gradient        uniform 0;
        value           nonuniform List<scalar> 
50
(
6183.39
6180.34
6177.15
6173.4
6167
6160.17
5277.64
1655.22
1073.54
1070.72
1046.05
810.271
615.185
566.361
161.224
13.1173
13.307
7.09443
1.11141
0.178476
0.112336
0.110494
0.10783
0.102682
0.0967226
0.0905862
0.0844782
0.0785387
0.0728435
0.0674174
0.0622758
0.0574027
0.0527871
0.048396
0.044215
0.0401999
0.0363285
0.0325518
0.0289063
0.0253079
0.0219424
0.0186907
0.0157235
0.0129682
0.0107584
0.00857698
0.00697972
0.00509834
0.00312675
0.000933977
)
;
    }
    rightWall
    {
        type            fixedFluxPressure;
        gradient        uniform 0;
        value           nonuniform List<scalar> 
50
(
3102.3
3105.34
2567.64
1551.87
1128.23
1157.58
1167.1
1164.95
1163.81
1143.53
949.197
828.542
816.631
891.397
900.559
899.219
446.569
121.689
0.263525
-0.0966942
0.0289086
0.201998
0.156131
-0.0272527
-0.0352355
-0.024574
-0.0123258
0.0184396
0.0278443
0.0175136
0.00328668
-0.0061639
-0.00895265
-0.0110127
-0.0108628
-0.0108584
-0.0105629
-0.0103401
-0.00983058
-0.00860785
-0.00123726
-8.87799e-05
0.00746052
0.00865075
0.00750228
0.00860131
0.00162501
-0.00232772
-0.00175573
-0.000721345
)
;
    }
    lowerWall
    {
        type            fixedFluxPressure;
        gradient        uniform 0;
        value           nonuniform List<scalar> 
62
(
6183.39
6178.78
6166.97
6147.96
6119.66
6079.92
6026.9
5959.9
5879.57
5787.71
5687.73
5584.43
5482.78
5387.29
5301.97
5229.26
5169.92
5123.19
5087.88
5062.15
5044.34
5033.17
5026.71
5026.71
5025.77
5023.24
5017
4854.45
2354.37
1256.7
1141.17
1154.47
1154.04
1161.34
1168.64
3358.75
3344.86
3006.27
2286
1174.56
1175.56
1187.42
1182.97
3358.75
3339.69
3296.85
3246.16
3195.98
3151.81
3125.77
3118.09
3111.46
3085.06
3043.2
2997.23
2965.43
2957.81
2972.79
3005.62
3043.85
3077.31
3102.3
)
;
    }
    atmosphere
    {
        type            totalPressure;
        rho             rho;
        psi             none;
        gamma           1;
        p0              uniform 0;
        value           nonuniform List<scalar> 
46
(
0
0
0
0
0
0
0
-2.7138e-06
-1.56351e-05
-2.78124e-05
-3.38841e-05
-3.38004e-05
-2.90076e-05
-2.15844e-05
-1.33635e-05
-5.99382e-06
-1.05766e-06
0
0
0
0
0
0
0
-3.39673e-09
-8.06399e-06
-2.95629e-05
-7.48371e-05
-0.00017154
-0.000282728
-0.000392715
-0.000493377
-0.00058063
-0.000652193
-0.000705309
-0.000735579
-0.000735442
-0.000693733
-0.000599347
-0.000448347
-0.00025373
-6.42769e-05
0
0
0
-1.41615e-07
)
;
    }
    defaultFaces
    {
        type            empty;
    }
}


// ************************************************************************* //
