/*--------------------------------*- C++ -*----------------------------------*\
| =========                 |                                                 |
| \\      /  F ield         | OpenFOAM: The Open Source CFD Toolbox           |
|  \\    /   O peration     | Version:  2312                                  |
|   \\  /    A nd           | Website:  www.openfoam.com                      |
|    \\/     M anipulation  |                                                 |
\*---------------------------------------------------------------------------*/
FoamFile
{
    version     2.0;
    format      ascii;
    arch        "LSB;label=32;scalar=64";
    class       surfaceScalarField;
    location    "4.35";
    object      phi;
}
// * * * * * * * * * * * * * * * * * * * * * * * * * * * * * * * * * * * * * //

dimensions      [0 3 -1 0 0 0 0];

oriented        oriented;

internalField   nonuniform List<scalar> 
4432
(
2.73552e-06
-2.73534e-06
4.66671e-06
-1.93104e-06
6.30719e-06
-1.64038e-06
7.60508e-06
-1.29783e-06
8.54333e-06
-9.38225e-07
9.11261e-06
-5.69291e-07
9.36437e-06
-2.51773e-07
9.36039e-06
3.98023e-09
9.13501e-06
2.25381e-07
8.69165e-06
4.43394e-07
8.05446e-06
6.37245e-07
7.28188e-06
7.72642e-07
6.41462e-06
8.67337e-07
5.49603e-06
9.18677e-07
4.57682e-06
9.19299e-07
3.70403e-06
8.72872e-07
2.88874e-06
8.15373e-07
2.14426e-06
7.44535e-07
1.50188e-06
6.42434e-07
9.45438e-07
5.56485e-07
4.94223e-07
4.51246e-07
2.40647e-08
4.70195e-07
2.40683e-08
2.08537e-06
-4.82028e-06
4.03943e-06
-3.88477e-06
5.71507e-06
-3.31578e-06
7.07877e-06
-2.66136e-06
8.07318e-06
-1.93255e-06
8.67825e-06
-1.17435e-06
8.96826e-06
-5.41847e-07
9.02465e-06
-5.25285e-08
8.8449e-06
4.05017e-07
8.42347e-06
8.64706e-07
7.80116e-06
1.25946e-06
7.04427e-06
1.52949e-06
6.19216e-06
1.71946e-06
5.28839e-06
1.82252e-06
4.3843e-06
1.8235e-06
3.52691e-06
1.73041e-06
2.73699e-06
1.60544e-06
2.03178e-06
1.44988e-06
1.42867e-06
1.24565e-06
9.35555e-07
1.04969e-06
5.57309e-07
8.29563e-07
1.73448e-07
8.54106e-07
1.97595e-07
1.83485e-06
-6.65512e-06
3.7492e-06
-5.79911e-06
5.42499e-06
-4.99156e-06
6.80443e-06
-4.04081e-06
7.81323e-06
-2.94136e-06
8.41916e-06
-1.78031e-06
8.71403e-06
-8.36761e-07
8.77515e-06
-1.13686e-07
8.61292e-06
5.67193e-07
8.20795e-06
1.26963e-06
7.57614e-06
1.89121e-06
6.81711e-06
2.28848e-06
5.96317e-06
2.5734e-06
5.06429e-06
2.72143e-06
4.1764e-06
2.71143e-06
3.35997e-06
2.54689e-06
2.61482e-06
2.35064e-06
1.95419e-06
2.11055e-06
1.40961e-06
1.79026e-06
9.85616e-07
1.47371e-06
6.86412e-07
1.12879e-06
4.35933e-07
1.10461e-06
6.33517e-07
1.82785e-06
-8.48294e-06
3.75381e-06
-7.72506e-06
5.42781e-06
-6.66556e-06
6.81151e-06
-5.42452e-06
7.7968e-06
-3.92669e-06
8.33258e-06
-2.31613e-06
8.58776e-06
-1.09201e-06
8.66058e-06
-1.86614e-07
8.51912e-06
7.08601e-07
8.08227e-06
1.70643e-06
7.38945e-06
2.58398e-06
6.59186e-06
3.08604e-06
5.70043e-06
3.46484e-06
4.79047e-06
3.63142e-06
3.92e-06
3.58194e-06
3.1532e-06
3.31377e-06
2.50102e-06
3.00289e-06
1.94293e-06
2.66871e-06
1.49346e-06
2.2398e-06
1.14305e-06
1.82419e-06
8.75115e-07
1.39677e-06
6.82672e-07
1.29709e-06
1.31625e-06
2.05e-06
-1.05331e-05
4.08012e-06
-9.75529e-06
5.80569e-06
-8.39123e-06
7.19816e-06
-6.81706e-06
8.15663e-06
-4.8852e-06
8.63004e-06
-2.78958e-06
8.82952e-06
-1.29151e-06
8.87816e-06
-2.35228e-07
8.71688e-06
8.69915e-07
8.21321e-06
2.21013e-06
7.39068e-06
3.40656e-06
6.50067e-06
3.97611e-06
5.45999e-06
4.50556e-06
4.42439e-06
4.66707e-06
3.4881e-06
4.51826e-06
2.62952e-06
4.17237e-06
2.13209e-06
3.50033e-06
1.77388e-06
3.02692e-06
1.4892e-06
2.52447e-06
1.23175e-06
2.08162e-06
8.9885e-07
1.72966e-06
6.4581e-07
1.55011e-06
1.962e-06
2.44223e-06
-1.29752e-05
4.64228e-06
-1.19553e-05
6.40413e-06
-1.01531e-05
7.7837e-06
-8.19666e-06
8.82051e-06
-5.92206e-06
9.31306e-06
-3.28218e-06
9.42352e-06
-1.40202e-06
9.04765e-06
1.40587e-07
8.31134e-06
1.60623e-06
7.50003e-06
3.02149e-06
6.75121e-06
4.15541e-06
5.92874e-06
4.79861e-06
5.06032e-06
5.374e-06
4.35962e-06
5.36773e-06
3.68575e-06
5.19204e-06
3.08414e-06
4.77392e-06
2.74939e-06
3.83502e-06
2.55458e-06
3.22172e-06
2.35507e-06
2.72399e-06
1.95896e-06
2.47776e-06
9.63687e-07
2.72497e-06
-2.39616e-07
2.75349e-06
1.72257e-06
2.73946e-06
-1.57146e-05
5.06433e-06
-1.42801e-05
6.81932e-06
-1.1908e-05
7.90429e-06
-9.2816e-06
8.40321e-06
-6.421e-06
9.05907e-06
-3.93809e-06
9.99837e-06
-2.34144e-06
1.06989e-05
-5.60138e-07
1.1051e-05
1.25401e-06
1.11386e-05
2.9336e-06
1.10941e-05
4.19957e-06
9.76479e-06
6.12769e-06
7.96645e-06
7.17205e-06
6.4132e-06
6.9207e-06
4.87026e-06
6.73476e-06
4.62468e-06
5.01937e-06
4.14822e-06
4.31142e-06
4.09185e-06
3.27812e-06
3.78795e-06
3.02798e-06
3.02201e-06
3.24381e-06
1.45311e-06
4.29403e-06
-8.79344e-07
5.08617e-06
8.4326e-07
2.79637e-06
-1.85111e-05
5.19266e-06
-1.66765e-05
7.19459e-06
-1.391e-05
9.08912e-06
-1.11762e-05
1.1042e-05
-8.37392e-06
1.31534e-05
-6.04956e-06
1.33273e-05
-2.5154e-06
1.06249e-05
2.14208e-06
7.23937e-06
4.6393e-06
5.72628e-06
4.4464e-06
5.469e-06
4.4566e-06
5.76746e-06
5.829e-06
6.07565e-06
6.86368e-06
6.25362e-06
6.74264e-06
6.6378e-06
6.35056e-06
6.57027e-06
5.08694e-06
6.97554e-06
3.90621e-06
7.0902e-06
3.16358e-06
6.56027e-06
3.55804e-06
5.75338e-06
4.05085e-06
5.07913e-06
4.96841e-06
4.19528e-06
5.97006e-06
5.03874e-06
-2.10979e-06
2.10991e-06
-3.08162e-06
9.71893e-07
-4.71163e-06
1.63002e-06
-6.86961e-06
2.15799e-06
-9.15213e-06
2.2825e-06
-1.12395e-05
2.08732e-06
-1.22375e-05
9.98034e-07
-1.15649e-05
-6.72688e-07
-9.57309e-06
-1.99186e-06
-7.44769e-06
-2.12543e-06
-5.37671e-06
-2.07103e-06
-3.55031e-06
-1.82643e-06
-2.5551e-06
-9.95245e-07
-1.93578e-06
-6.19341e-07
-1.43876e-06
-4.97029e-07
-8.85387e-07
-5.53385e-07
-3.58213e-07
-5.27183e-07
1.13703e-08
-3.69588e-07
1.14075e-08
-8.50148e-07
2.96029e-06
-2.24428e-06
2.36616e-06
-3.7217e-06
3.10754e-06
-5.70852e-06
4.14487e-06
-8.04315e-06
4.61718e-06
-1.01301e-05
4.1743e-06
-1.14266e-05
2.29451e-06
-1.07264e-05
-1.37296e-06
-8.68112e-06
-4.03721e-06
-6.48755e-06
-4.31906e-06
-4.72149e-06
-3.83718e-06
-3.31004e-06
-3.23801e-06
-2.71292e-06
-1.59249e-06
-2.42874e-06
-9.03672e-07
-2.09866e-06
-8.27272e-07
-1.65551e-06
-9.96684e-07
-1.00972e-06
-1.17312e-06
-3.0551e-07
-1.07393e-06
-2.94223e-07
-2.0839e-06
5.04421e-06
-4.33924e-06
4.62152e-06
-5.38256e-06
4.15082e-06
-6.25451e-06
5.01676e-06
-7.80486e-06
6.16743e-06
-9.78302e-06
6.15237e-06
-1.15296e-05
4.041e-06
-1.19305e-05
-9.72196e-07
-9.5112e-06
-6.45651e-06
-7.11333e-06
-6.71691e-06
-5.59347e-06
-5.35709e-06
-4.81831e-06
-4.01324e-06
-4.17967e-06
-2.2312e-06
-3.84599e-06
-1.2374e-06
-3.30675e-06
-1.36655e-06
-2.94412e-06
-1.35928e-06
-2.9326e-06
-1.18456e-06
-2.04448e-06
-1.96193e-06
-2.33846e-06
-4.30611e-06
9.35109e-06
-8.21114e-06
8.52707e-06
-1.00488e-05
5.98893e-06
-9.23511e-06
4.20329e-06
-8.03858e-06
4.97109e-06
-6.35523e-06
4.4691e-06
-4.32282e-06
2.00854e-06
-4.7968e-06
-4.9833e-07
-5.26554e-06
-5.98811e-06
-5.85836e-06
-6.1245e-06
-6.32223e-06
-4.89389e-06
-5.59569e-06
-4.74063e-06
-5.70319e-06
-2.12467e-06
-5.80245e-06
-1.13923e-06
-3.59276e-06
-3.5773e-06
-3.64432e-06
-1.30873e-06
-3.81443e-06
-1.01529e-06
-2.28584e-06
-3.49122e-06
-4.62519e-06
-8.77641e-06
1.81275e-05
-1.38528e-05
1.36035e-05
-1.45307e-05
6.66673e-06
-1.1147e-05
8.1937e-07
-6.57298e-06
3.96876e-07
-3.33681e-06
1.23265e-06
9.07269e-07
-2.23578e-06
8.17747e-06
-7.76877e-06
1.00398e-05
-7.8507e-06
4.35106e-06
-4.36031e-07
-1.63999e-06
1.09693e-06
-2.12317e-06
-4.25752e-06
-5.25488e-06
1.00695e-06
-5.83087e-06
-5.63146e-07
-1.12353e-07
-9.29567e-06
3.15998e-06
-4.58077e-06
6.62569e-06
-4.48064e-06
7.21831e-06
-4.08341e-06
2.59416e-06
-6.83314e-06
2.49613e-05
-1.07521e-05
1.75229e-05
-9.68908e-06
5.60421e-06
-5.60185e-06
-3.26755e-06
-1.68833e-06
-3.51648e-06
-1.60828e-06
1.15275e-06
-6.60576e-07
-3.18349e-06
2.86899e-06
-1.12984e-05
5.90877e-06
-1.08908e-05
4.96179e-06
5.10454e-07
3.38271e-06
2.67536e-06
3.08295e-06
-3.95843e-06
1.99264e-06
2.09653e-06
7.54153e-07
6.74511e-07
3.35743e-06
-1.18997e-05
5.99689e-06
-7.22101e-06
7.59734e-06
-6.08176e-06
6.15704e-06
-2.64389e-06
8.74948e-06
-4.03809e-06
2.89999e-05
-6.12276e-06
1.9608e-05
-4.75756e-06
4.2393e-06
-1.01171e-06
-7.01324e-06
1.17915e-06
-5.70721e-06
-5.23821e-07
2.85574e-06
-1.17579e-06
-2.53161e-06
-9.79219e-07
-1.14952e-05
4.92104e-07
-1.23624e-05
1.44188e-06
-4.39794e-07
3.0552e-06
1.06147e-06
3.39243e-06
-4.29625e-06
2.87693e-06
2.61136e-06
2.40732e-06
1.14342e-06
3.2394e-06
-1.27324e-05
4.39739e-06
-8.37968e-06
5.1486e-06
-6.8338e-06
4.6978e-06
-2.19422e-06
1.34471e-05
-1.51596e-06
3.0516e-05
-1.52816e-08
1.81074e-05
7.47924e-07
3.47615e-06
1.38843e-06
-7.65371e-06
1.28069e-06
-5.59948e-06
-1.96503e-06
6.10147e-06
-2.17028e-06
-2.32643e-06
-3.92283e-06
-9.74281e-06
-5.07965e-06
-1.12057e-05
-2.77119e-06
-2.74845e-06
7.94888e-07
-2.5048e-06
2.74814e-06
-6.24972e-06
2.07689e-06
3.28238e-06
1.92617e-06
1.2939e-06
1.41705e-06
-1.22236e-05
7.89542e-07
-7.75255e-06
5.65233e-07
-6.60989e-06
1.8743e-06
-3.50342e-06
1.53204e-05
4.22589e-06
-2.27375e-05
7.477e-06
-1.9928e-05
7.87878e-06
-1.43121e-05
5.79305e-06
-9.09066e-06
5.03535e-06
-7.61638e-06
5.69908e-06
-6.71339e-06
7.09643e-06
-3.91281e-06
9.58128e-06
-3.42813e-07
1.2867e-05
1.35362e-06
1.4964e-05
2.34945e-06
1.58798e-05
3.54098e-06
1.6545e-05
5.16397e-06
1.72534e-05
6.15554e-06
1.77099e-05
6.2863e-06
1.8251e-05
5.8097e-06
1.8972e-05
4.36616e-06
2.01914e-05
2.6871e-06
2.02589e-05
3.09622e-06
1.91673e-05
4.64989e-06
1.76323e-05
5.58603e-06
1.67075e-05
5.89335e-06
1.70629e-05
5.61507e-06
5.99779e-06
1.61038e-05
-1.92942e-06
-2.08082e-05
-3.51111e-06
-1.83464e-05
-3.03277e-06
-1.47905e-05
-9.68326e-07
-1.11551e-05
2.50546e-06
-1.10901e-05
5.47651e-06
-9.68433e-06
8.30307e-06
-6.73923e-06
1.19095e-05
-3.949e-06
1.49779e-05
-1.7146e-06
1.74952e-05
-1.6756e-07
1.88823e-05
2.15413e-06
1.91071e-05
4.93945e-06
1.91129e-05
6.15e-06
1.91604e-05
6.23904e-06
1.9175e-05
5.79542e-06
1.96577e-05
3.88367e-06
1.98725e-05
2.47256e-06
1.82108e-05
4.7582e-06
1.56064e-05
7.25455e-06
1.40405e-05
7.15212e-06
1.30684e-05
6.86561e-06
1.25699e-05
6.11357e-06
7.28502e-06
1.12828e-05
-1.59306e-06
-1.92151e-05
-2.70504e-06
-1.72344e-05
-1.93484e-06
-1.55606e-05
5.71257e-07
-1.36611e-05
2.66693e-06
-1.31856e-05
5.06248e-06
-1.20797e-05
7.33377e-06
-9.01024e-06
9.75447e-06
-6.36939e-06
1.24426e-05
-4.4024e-06
1.4979e-05
-2.7035e-06
1.63921e-05
7.41446e-07
1.56193e-05
5.7127e-06
1.4158e-05
7.61176e-06
1.25975e-05
7.80001e-06
9.16314e-06
9.23029e-06
4.76635e-06
8.2809e-06
-4.66009e-07
7.70533e-06
-3.25722e-06
7.54976e-06
-5.13603e-06
9.13361e-06
-6.29983e-06
8.31608e-06
-7.46031e-06
8.0261e-06
-9.50276e-06
8.15634e-06
9.81331e-06
-1.20311e-05
-2.69371e-06
-1.65213e-05
-5.14754e-06
-1.47805e-05
-6.45594e-06
-1.42521e-05
-6.37287e-06
-1.37441e-05
-5.80483e-06
-1.37535e-05
-4.48427e-06
-1.34e-05
-2.75149e-06
-1.07428e-05
-1.86623e-06
-7.25431e-06
-3.35408e-06
-2.91413e-06
-6.18541e-06
1.2834e-07
-7.93728e-06
2.49392e-06
-8.9608e-06
6.73687e-06
-1.06605e-05
9.31223e-06
-1.39682e-05
1.11084e-05
-2.11883e-05
1.6451e-05
-2.97373e-05
1.68303e-05
-3.35493e-05
1.15177e-05
-3.32746e-05
7.27531e-06
-3.27481e-05
8.60722e-06
-3.35647e-05
9.13264e-06
-3.48824e-05
9.34374e-06
-3.67892e-05
1.00627e-05
1.09528e-05
-3.79287e-05
-7.27339e-06
-9.2479e-06
-1.34239e-05
-8.62997e-06
-1.77042e-05
-9.97194e-06
-2.04324e-05
-1.10159e-05
-2.25753e-05
-1.16107e-05
-2.51816e-05
-1.07937e-05
-2.81322e-05
-7.79225e-06
-3.16399e-05
-3.74643e-06
-3.44589e-05
-9.50123e-08
-3.56222e-05
1.29202e-06
-3.47589e-05
1.63108e-06
-3.21769e-05
4.15534e-06
-3.01343e-05
7.27033e-06
-3.02601e-05
1.12346e-05
-3.18904e-05
1.80816e-05
-3.57809e-05
2.0721e-05
-3.77252e-05
1.34619e-05
-4.04998e-05
1.00498e-05
-4.21968e-05
1.0304e-05
-4.37131e-05
1.06486e-05
-4.52242e-05
1.08544e-05
-4.66863e-05
1.15245e-05
1.17307e-05
-4.74646e-05
-9.57386e-06
3.25922e-07
-1.61009e-05
-2.10301e-06
-2.06161e-05
-5.45688e-06
-2.449e-05
-7.14206e-06
-2.79068e-05
-8.194e-06
-3.0181e-05
-8.51967e-06
-3.04923e-05
-7.48103e-06
-2.92658e-05
-4.97297e-06
-2.7392e-05
-1.96868e-06
-2.63529e-05
2.53084e-07
-2.68607e-05
2.13913e-06
-2.78046e-05
5.09971e-06
-2.90759e-05
8.54207e-06
-3.02472e-05
1.24062e-05
-2.97817e-05
1.76163e-05
-2.96181e-05
2.05574e-05
-3.25594e-05
1.64032e-05
-3.67419e-05
1.42323e-05
-4.01274e-05
1.36894e-05
-4.24336e-05
1.29546e-05
-4.39513e-05
1.23718e-05
-4.48774e-05
1.24503e-05
1.24785e-05
-4.56255e-05
-9.28888e-06
9.61504e-06
-1.78837e-05
6.49279e-06
-2.32935e-05
-4.52484e-08
-2.57038e-05
-4.72918e-06
-2.61403e-05
-7.7542e-06
-2.62544e-05
-8.40348e-06
-2.48523e-05
-8.88144e-06
-2.2415e-05
-7.4095e-06
-1.98352e-05
-4.54812e-06
-1.77295e-05
-1.85257e-06
-1.79046e-05
2.31438e-06
-1.92539e-05
6.44913e-06
-2.10952e-05
1.03837e-05
-2.28782e-05
1.41894e-05
-2.34217e-05
1.81601e-05
-2.38514e-05
2.09875e-05
-2.72031e-05
1.97553e-05
-3.14152e-05
1.84449e-05
-3.46308e-05
1.69054e-05
-3.6479e-05
1.48032e-05
-3.74054e-05
1.32984e-05
-3.77831e-05
1.28282e-05
1.29215e-05
-3.82262e-05
-1.88318e-05
2.84458e-05
-3.53794e-05
2.30407e-05
-4.5056e-05
9.63219e-06
-4.54874e-05
-4.29691e-06
-4.29918e-05
-1.02494e-05
-5.28862e-05
1.49085e-06
-5.58157e-05
-5.9502e-06
-5.52118e-05
-8.0102e-06
-6.0166e-05
4.09059e-07
-5.5033e-05
-6.98736e-06
-4.50999e-05
-7.62576e-06
-3.78176e-05
-8.44098e-07
-3.19872e-05
4.54524e-06
-2.94789e-05
1.16745e-05
-2.74512e-05
1.61293e-05
-2.63886e-05
1.9924e-05
-2.97482e-05
2.31152e-05
-3.23305e-05
2.10279e-05
-3.38074e-05
1.83831e-05
-3.40138e-05
1.50101e-05
-3.35758e-05
1.28609e-05
-3.24722e-05
1.17249e-05
1.17947e-05
-3.13451e-05
-1.87681e-06
3.03233e-05
5.28884e-06
1.58753e-05
-1.38599e-06
1.63076e-05
-4.75806e-06
-9.24941e-07
-7.13221e-06
-7.87641e-06
-5.60914e-06
-3.15528e-08
-2.17059e-05
1.01484e-05
-3.80319e-05
8.3209e-06
-3.92144e-05
1.59835e-06
-3.79635e-05
-8.22936e-06
-3.94283e-05
-6.15017e-06
-4.28558e-05
2.59181e-06
-4.89967e-05
1.06879e-05
-4.96487e-05
1.23249e-05
-5.11591e-05
1.76346e-05
-5.10666e-05
1.98215e-05
-4.76848e-05
1.97205e-05
-4.78737e-05
2.121e-05
-4.77199e-05
1.82263e-05
-4.45405e-05
1.18283e-05
-4.0708e-05
9.02631e-06
-3.61316e-05
7.14655e-06
9.05351e-06
-3.33925e-05
4.86185e-06
2.54632e-05
-1.02475e-06
2.17634e-05
2.58719e-06
1.26975e-05
1.40218e-06
2.62161e-07
-2.0483e-06
-4.42399e-06
-5.03117e-07
-1.57461e-06
2.08288e-06
7.56396e-06
4.82275e-06
5.58215e-06
6.12566e-06
2.96941e-07
3.37924e-06
-5.47808e-06
-9.66638e-07
-1.79394e-06
-5.64062e-06
7.28087e-06
-1.00487e-05
1.51057e-05
-2.09395e-05
2.32247e-05
-3.31403e-05
2.98454e-05
-3.85428e-05
2.52292e-05
-3.853e-05
1.97059e-05
-4.26402e-05
2.53151e-05
-3.90752e-05
1.46555e-05
-3.36287e-05
6.38162e-06
-3.51408e-05
1.05376e-05
-3.39512e-05
5.95641e-06
4.50132e-06
-2.93983e-05
-3.89219e-06
2.93544e-05
4.15633e-06
1.37165e-05
1.05885e-05
6.26742e-06
9.17662e-06
1.67556e-06
3.85353e-06
9.00544e-07
-1.33266e-06
3.61286e-06
8.6914e-08
6.1454e-06
4.93616e-06
7.32775e-07
7.15731e-06
-1.92575e-06
4.50597e-06
-2.82946e-06
1.41025e-06
1.29813e-06
1.25847e-06
7.42959e-06
2.65297e-06
1.37112e-05
1.53707e-06
2.43397e-05
-2.76286e-06
3.41493e-05
-5.33189e-06
2.78083e-05
-3.39447e-06
1.77821e-05
6.24623e-06
1.56834e-05
1.6217e-05
4.68961e-06
1.55769e-05
7.02479e-06
1.37481e-05
1.23688e-05
8.22831e-06
1.14806e-05
1.65407e-05
-3.80792e-06
4.1198e-06
2.52351e-05
8.52579e-06
9.31176e-06
1.00907e-05
4.70353e-06
8.01574e-06
3.75147e-06
4.57248e-06
4.34479e-06
1.78267e-06
6.40356e-06
1.93852e-06
5.9901e-06
2.76125e-06
-9.00432e-08
2.32992e-06
-1.49538e-06
-2.56165e-08
-4.76131e-07
-1.38186e-06
2.65137e-06
1.15175e-06
4.89273e-06
6.29851e-06
8.56133e-06
1.33256e-05
1.73093e-05
2.02993e-05
2.71725e-05
2.41657e-05
2.3944e-05
2.56884e-05
1.62653e-05
3.20681e-05
9.31073e-06
3.14056e-05
5.35759e-06
2.84377e-05
9.99252e-06
2.96937e-05
1.11141e-05
2.85184e-05
1.26561e-05
1.73582e-05
2.77036e-05
8.20708e-06
1.70297e-05
9.04151e-06
8.47819e-06
8.04638e-06
5.69941e-06
6.32365e-06
5.47496e-06
4.2516e-06
6.41766e-06
2.99349e-06
7.66241e-06
3.79106e-06
5.19312e-06
2.56494e-06
1.13633e-06
7.09833e-07
3.5945e-07
-1.23879e-06
1.47163e-06
-9.16702e-07
2.32803e-06
1.57984e-06
2.39481e-06
5.64059e-06
4.49902e-06
1.22678e-05
1.06801e-05
2.11809e-05
1.82566e-05
2.63579e-05
1.87645e-05
2.87136e-05
1.39077e-05
3.03239e-05
7.69869e-06
3.13362e-05
4.34369e-06
3.59565e-05
5.37109e-06
3.8153e-05
8.91741e-06
3.76359e-05
1.31738e-05
1.7352e-05
3.76445e-05
5.57597e-06
1.14546e-05
6.46983e-06
7.58508e-06
5.77063e-06
6.39937e-06
4.89214e-06
6.35424e-06
4.43673e-06
6.87389e-06
4.97703e-06
7.12295e-06
5.0734e-06
5.09753e-06
3.43083e-06
2.77964e-06
1.66848e-06
2.1224e-06
4.32324e-07
2.70822e-06
4.52648e-07
2.30803e-06
1.36143e-06
1.48648e-06
2.56195e-06
3.29911e-06
5.97148e-06
7.27102e-06
1.17255e-05
1.25029e-05
1.59164e-05
1.45737e-05
1.91057e-05
1.07185e-05
2.32625e-05
3.54197e-06
2.82867e-05
-6.80411e-07
3.2205e-05
1.45268e-06
3.34321e-05
7.69061e-06
3.28947e-05
1.37111e-05
1.83341e-05
3.19155e-05
3.06285e-06
8.39266e-06
3.83093e-06
6.8179e-06
3.68274e-06
6.54844e-06
3.4519e-06
6.58596e-06
3.64753e-06
6.67913e-06
4.37318e-06
6.39817e-06
4.48642e-06
4.9852e-06
3.73356e-06
3.53343e-06
2.67833e-06
3.17859e-06
2.12673e-06
3.2608e-06
1.74264e-06
2.69322e-06
1.28486e-06
1.94556e-06
1.2955e-06
3.29004e-06
2.6618e-06
5.90648e-06
5.95166e-06
9.21489e-06
9.53195e-06
1.09951e-05
1.25489e-05
7.70322e-06
1.48649e-05
1.22762e-06
1.77219e-05
-3.53588e-06
1.98248e-05
-6.49336e-07
2.02662e-05
7.25024e-06
1.92213e-05
1.47578e-05
2.08834e-05
1.66742e-05
1.41207e-06
6.98169e-06
1.93831e-06
6.29272e-06
2.01157e-06
6.47618e-06
2.06224e-06
6.53626e-06
2.35327e-06
6.38903e-06
2.84788e-06
5.90449e-06
2.95881e-06
4.87521e-06
2.54955e-06
3.94369e-06
2.16324e-06
3.56598e-06
2.0436e-06
3.38162e-06
1.86033e-06
2.87783e-06
1.28824e-06
2.51923e-06
1.16501e-06
3.41513e-06
1.82552e-06
5.24809e-06
3.79697e-06
7.24574e-06
6.53963e-06
8.25484e-06
8.09905e-06
6.14624e-06
7.6494e-06
1.67965e-06
6.79742e-06
-2.6818e-06
7.29334e-06
-1.1435e-06
8.11612e-06
6.4292e-06
6.69416e-06
1.61803e-05
2.44141e-05
3.16713e-06
5.05294e-07
6.47756e-06
7.06819e-07
6.09234e-06
7.69229e-07
6.41484e-06
8.95557e-07
6.41094e-06
1.134e-06
6.15155e-06
1.41785e-06
5.62159e-06
1.47179e-06
4.82222e-06
1.31006e-06
4.10643e-06
1.20183e-06
3.67529e-06
1.23761e-06
3.34703e-06
1.09503e-06
3.02175e-06
7.65775e-07
2.85003e-06
7.67265e-07
3.41541e-06
1.50182e-06
4.51552e-06
3.1031e-06
5.64663e-06
5.20687e-06
6.15333e-06
6.28316e-06
5.07223e-06
5.01103e-06
2.95403e-06
2.14894e-06
1.82337e-07
1.10473e-06
-9.78152e-08
1.76948e-06
5.76576e-06
1.50224e-06
1.64499e-05
2.6156e-05
-2.37748e-07
-1.39565e-09
6.48025e-06
-6.69264e-08
6.15907e-06
-8.16751e-08
6.43069e-06
6.8223e-09
6.32347e-06
1.81388e-07
5.97796e-06
3.76115e-07
5.42781e-06
4.57825e-07
4.74146e-06
4.48596e-07
4.11664e-06
4.72617e-07
3.65231e-06
5.17742e-07
3.30302e-06
5.0999e-07
3.03075e-06
4.16841e-07
2.94457e-06
5.75908e-07
3.2579e-06
1.25253e-06
3.84059e-06
2.47815e-06
4.4228e-06
4.01538e-06
4.61794e-06
4.97803e-06
4.11147e-06
4.77308e-06
3.16081e-06
2.68975e-06
2.26732e-06
3.91396e-07
2.20193e-06
2.47943e-07
5.91082e-06
1.78295e-06
1.49151e-05
2.48059e-05
3.13601e-06
-2.84262e-07
6.76561e-06
-5.73768e-07
6.44972e-06
-6.85647e-07
6.54365e-06
-6.63592e-07
6.30242e-06
-5.32763e-07
5.84809e-06
-3.50174e-07
5.24615e-06
-1.93088e-07
4.58531e-06
-6.42937e-08
3.9888e-06
6.74323e-08
3.52158e-06
1.98199e-07
3.17333e-06
2.84919e-07
2.94518e-06
3.49759e-07
2.88099e-06
5.68307e-07
3.04071e-06
1.07368e-06
3.33665e-06
1.89532e-06
3.60264e-06
2.86529e-06
3.64946e-06
3.60525e-06
3.37298e-06
3.75628e-06
3.01121e-06
3.10694e-06
2.91798e-06
1.72538e-06
3.58445e-06
1.47695e-06
6.1601e-06
3.93953e-06
1.24547e-05
2.09977e-05
7.74919e-06
-5.04113e-07
7.271e-06
-9.54313e-07
6.90108e-06
-1.18319e-06
6.77359e-06
-1.23232e-06
6.35253e-06
-1.13955e-06
5.75625e-06
-9.53733e-07
5.06124e-06
-7.26666e-07
4.35915e-06
-4.80696e-07
3.74375e-06
-2.26852e-07
3.26869e-06
9.2584e-09
2.93821e-06
2.09131e-07
2.74637e-06
3.93743e-07
2.6975e-06
6.4752e-07
2.78811e-06
1.03233e-06
2.95305e-06
1.54559e-06
3.09061e-06
2.09291e-06
3.10333e-06
2.49047e-06
2.97659e-06
2.64539e-06
2.85738e-06
2.56169e-06
3.00264e-06
2.35309e-06
3.79392e-06
2.77204e-06
5.74229e-06
5.45537e-06
9.77119e-06
1.61852e-05
1.027e-05
-6.88307e-07
7.96029e-06
-1.29039e-06
7.50419e-06
-1.64338e-06
7.12757e-06
-1.78311e-06
6.49319e-06
-1.74028e-06
5.71432e-06
-1.55592e-06
4.87774e-06
-1.27475e-06
4.07884e-06
-9.36735e-07
3.40662e-06
-5.79391e-07
2.91225e-06
-2.38873e-07
2.59863e-06
6.5526e-08
2.44294e-06
3.46047e-07
2.41799e-06
6.42964e-07
2.49223e-06
9.8306e-07
2.614e-06
1.35422e-06
2.72047e-06
1.69868e-06
2.75986e-06
1.93949e-06
2.73672e-06
2.05483e-06
2.74293e-06
2.12739e-06
2.9309e-06
2.38324e-06
3.53866e-06
3.27393e-06
4.85203e-06
5.74725e-06
7.29959e-06
1.14472e-05
1.04861e-05
-8.56833e-07
8.81825e-06
-1.60827e-06
8.25662e-06
-2.09e-06
7.61022e-06
-2.32711e-06
6.73116e-06
-2.33516e-06
5.72321e-06
-2.15297e-06
4.69636e-06
-1.82693e-06
3.75362e-06
-1.4137e-06
2.9942e-06
-9.71103e-07
2.47049e-06
-5.46399e-07
2.17478e-06
-1.63596e-07
2.06101e-06
1.8121e-07
2.07408e-06
5.10129e-07
2.16422e-06
8.38434e-07
2.28659e-06
1.15855e-06
2.40123e-06
1.43743e-06
2.48179e-06
1.64052e-06
2.53441e-06
1.7756e-06
2.60856e-06
1.91903e-06
2.78812e-06
2.25922e-06
3.19906e-06
3.12881e-06
3.98336e-06
5.08651e-06
5.34178e-06
7.61088e-06
8.92441e-06
-1.01619e-06
9.83518e-06
-1.90992e-06
9.15119e-06
-2.51481e-06
8.21594e-06
-2.83129e-06
7.04844e-06
-2.8815e-06
5.77419e-06
-2.69272e-06
4.50835e-06
-2.32074e-06
3.38239e-06
-1.83944e-06
2.51367e-06
-1.32367e-06
1.95549e-06
-8.3136e-07
1.68325e-06
-3.93479e-07
1.62391e-06
-1.19359e-08
1.69332e-06
3.27879e-07
1.82518e-06
6.42636e-07
1.97259e-06
9.35258e-07
2.10933e-06
1.19408e-06
2.22365e-06
1.407e-06
2.32212e-06
1.58588e-06
2.43029e-06
1.7862e-06
2.58838e-06
2.1319e-06
2.85383e-06
2.82425e-06
3.29143e-06
4.17376e-06
3.99386e-06
5.09503e-06
6.69041e-06
-1.16232e-06
1.09985e-05
-2.18572e-06
1.01754e-05
-2.89341e-06
8.9244e-06
-3.27874e-06
7.43451e-06
-3.35038e-06
5.84655e-06
-3.1419e-06
4.30058e-06
-2.7201e-06
2.96129e-06
-2.17489e-06
1.96915e-06
-1.59516e-06
1.37646e-06
-1.04587e-06
1.13464e-06
-5.65711e-07
1.14444e-06
-1.6106e-07
1.28934e-06
1.76109e-07
1.48867e-06
4.7103e-07
1.67831e-06
7.34081e-07
1.84688e-06
9.73328e-07
1.98496e-06
1.19191e-06
2.10406e-06
1.4045e-06
2.21818e-06
1.64917e-06
2.34416e-06
2.00064e-06
2.50286e-06
2.56806e-06
2.7248e-06
3.49843e-06
3.06337e-06
3.59112e-06
5.00352e-06
-1.2942e-06
1.22933e-05
-2.43018e-06
1.13121e-05
-3.22347e-06
9.71838e-06
-3.65637e-06
7.86809e-06
-3.73382e-06
5.92466e-06
-3.4961e-06
4.0635e-06
-3.02415e-06
2.48998e-06
-2.42371e-06
1.36935e-06
-1.78835e-06
7.41709e-07
-1.19204e-06
5.38941e-07
-6.74923e-07
6.27904e-07
-2.52418e-07
8.67403e-07
8.6431e-08
1.15036e-06
3.58112e-07
1.40714e-06
5.90003e-07
1.61546e-06
7.99697e-07
1.77571e-06
1.00376e-06
1.9004e-06
1.22037e-06
2.00197e-06
1.47796e-06
2.08697e-06
1.82228e-06
2.1589e-06
2.31557e-06
2.23172e-06
3.0305e-06
2.34971e-06
2.57799e-06
4.04394e-06
-1.41141e-06
1.37055e-05
-2.64382e-06
1.25452e-05
-3.50479e-06
1.058e-05
-3.96835e-06
8.33226e-06
-4.03917e-06
5.99608e-06
-3.7665e-06
3.79141e-06
-3.24853e-06
1.97258e-06
-2.60404e-06
7.25415e-07
-1.92929e-06
6.75026e-08
-1.2944e-06
-9.54338e-08
-7.43629e-07
7.76248e-08
-2.97378e-07
4.21616e-07
4.33803e-08
8.10038e-07
3.01784e-07
1.14914e-06
5.03663e-07
1.41395e-06
6.79667e-07
1.60003e-06
8.52279e-07
1.72808e-06
1.04459e-06
1.80994e-06
1.28032e-06
1.8515e-06
1.59034e-06
1.8492e-06
2.01493e-06
1.80773e-06
2.59722e-06
1.76723e-06
1.80047e-06
3.37549e-06
-1.51491e-06
1.52208e-05
-2.82921e-06
1.386e-05
-3.74327e-06
1.14946e-05
-4.22514e-06
8.81469e-06
-4.28014e-06
6.05162e-06
-3.96981e-06
3.48161e-06
-3.41318e-06
1.41647e-06
-2.74261e-06
5.53321e-08
-2.04395e-06
-6.30694e-07
-1.38251e-06
-7.5645e-07
-8.04125e-07
-5.00356e-07
-3.32522e-07
-4.96167e-08
2.73724e-08
4.5048e-07
2.8203e-07
8.94778e-07
4.60465e-07
1.23578e-06
6.02564e-07
1.45816e-06
7.38101e-07
1.59274e-06
8.87837e-07
1.66039e-06
1.07868e-06
1.66086e-06
1.32994e-06
1.59816e-06
1.6726e-06
1.46522e-06
2.13764e-06
1.30323e-06
1.19304e-06
2.7452e-06
-1.60495e-06
1.68264e-05
-2.98885e-06
1.52445e-05
-3.94553e-06
1.24518e-05
-4.43824e-06
9.3079e-06
-4.47248e-06
6.08635e-06
-4.12004e-06
3.12965e-06
-3.53619e-06
8.33074e-07
-2.86067e-06
-6.19771e-07
-2.15533e-06
-1.33565e-06
-1.48046e-06
-1.43096e-06
-8.80868e-07
-1.09963e-06
-3.82329e-07
-5.47874e-07
8.77942e-10
6.75189e-08
2.66253e-07
6.29613e-07
4.39889e-07
1.06231e-06
5.5337e-07
1.34482e-06
6.47307e-07
1.49892e-06
7.51985e-07
1.5558e-06
8.84132e-07
1.52882e-06
1.0666e-06
1.41589e-06
1.31806e-06
1.21417e-06
1.66574e-06
9.55264e-07
7.33037e-07
2.12606e-06
-1.68021e-06
1.85069e-05
-3.12219e-06
1.66869e-05
-4.11531e-06
1.34454e-05
-4.61216e-06
9.80519e-06
-4.62569e-06
6.10031e-06
-4.22636e-06
2.73073e-06
-3.62738e-06
2.34486e-07
-2.96747e-06
-1.27933e-06
-2.27298e-06
-2.02983e-06
-1.6015e-06
-2.10216e-06
-9.93772e-07
-1.70712e-06
-4.73453e-07
-1.06799e-06
-6.00265e-08
-3.45744e-07
2.33331e-07
3.36382e-07
4.13837e-07
8.819e-07
5.13243e-07
1.24547e-06
5.74069e-07
1.43812e-06
6.30529e-07
1.49937e-06
7.04825e-07
1.45458e-06
8.12972e-07
1.30787e-06
9.72413e-07
1.05469e-06
1.20343e-06
7.25003e-07
4.0558e-07
1.53066e-06
-1.71594e-06
2.02234e-05
-3.20259e-06
1.8174e-05
-4.22482e-06
1.4468e-05
-4.72687e-06
1.03076e-05
-4.71874e-06
6.09255e-06
-4.30339e-06
2.31574e-06
-3.69478e-06
-3.73802e-07
-3.05735e-06
-1.91646e-06
-2.38657e-06
-2.70036e-06
-1.73884e-06
-2.74969e-06
-1.14378e-06
-2.30202e-06
-6.16491e-07
-1.59515e-06
-1.75612e-07
-7.86535e-07
1.55058e-07
5.7631e-09
3.62996e-07
6.73981e-07
4.65452e-07
1.143e-06
5.04835e-07
1.39871e-06
5.20256e-07
1.48391e-06
5.39721e-07
1.43511e-06
5.79027e-07
1.26863e-06
6.52528e-07
9.81498e-07
7.80143e-07
5.97115e-07
2.02384e-07
9.83482e-07
-1.66359e-06
2.18872e-05
-3.15372e-06
1.96644e-05
-4.186e-06
1.55006e-05
-4.69746e-06
1.08194e-05
-4.70002e-06
6.09542e-06
-4.31517e-06
1.93117e-06
-3.72831e-06
-9.60405e-07
-3.09315e-06
-2.5514e-06
-2.45836e-06
-3.33497e-06
-1.86187e-06
-3.34603e-06
-1.31032e-06
-2.85348e-06
-8.03169e-07
-2.10225e-06
-3.51605e-07
-1.23808e-06
1.58275e-08
-3.61687e-07
2.66754e-07
4.23006e-07
3.94813e-07
1.01487e-06
4.29239e-07
1.36419e-06
4.17434e-07
1.49563e-06
3.91499e-07
1.461e-06
3.70301e-07
1.28988e-06
3.67796e-07
9.83976e-07
4.03323e-07
5.62243e-07
1.09042e-07
4.96499e-07
-1.49041e-06
2.3378e-05
-2.90678e-06
2.10811e-05
-3.91502e-06
1.65091e-05
-4.43535e-06
1.134e-05
-4.47329e-06
6.1336e-06
-4.14636e-06
1.60446e-06
-3.61025e-06
-1.49633e-06
-2.99066e-06
-3.17085e-06
-2.42713e-06
-3.8984e-06
-1.9231e-06
-3.85e-06
-1.45622e-06
-3.32034e-06
-1.0072e-06
-2.55128e-06
-5.75755e-07
-1.66958e-06
-1.87414e-07
-7.50111e-07
1.12565e-07
1.22916e-07
2.86203e-07
8.411e-07
3.40424e-07
1.30982e-06
3.16688e-07
1.51923e-06
2.58013e-07
1.51958e-06
1.89299e-07
1.35861e-06
1.25205e-07
1.04827e-06
8.4316e-08
6.02801e-07
1.03497e-07
8.97968e-08
-1.19588e-06
2.4574e-05
-2.44567e-06
2.2331e-05
-3.37449e-06
1.74381e-05
-3.87691e-06
1.18426e-05
-3.98598e-06
6.24285e-06
-3.68808e-06
1.3067e-06
-3.19113e-06
-1.99317e-06
-2.66988e-06
-3.69203e-06
-2.23946e-06
-4.32877e-06
-1.87836e-06
-4.2111e-06
-1.54105e-06
-3.65769e-06
-1.1924e-06
-2.90001e-06
-8.20525e-07
-2.04157e-06
-4.42331e-07
-1.12845e-06
-1.05552e-07
-2.14032e-07
1.28847e-07
6.06515e-07
2.27796e-07
1.21068e-06
2.15999e-07
1.53084e-06
1.41978e-07
1.59346e-06
3.96046e-08
1.46093e-06
-7.15099e-08
1.15918e-06
-1.73215e-07
7.0491e-07
1.71702e-07
-2.41871e-07
-7.9942e-07
2.53737e-05
-1.79132e-06
2.33231e-05
-2.56058e-06
1.82075e-05
-3.01526e-06
1.22974e-05
-3.13788e-06
6.36555e-06
-2.86523e-06
1.03412e-06
-2.45789e-06
-2.40048e-06
-2.11947e-06
-4.03046e-06
-1.88102e-06
-4.56726e-06
-1.7057e-06
-4.38649e-06
-1.53474e-06
-3.82875e-06
-1.32302e-06
-3.11187e-06
-1.04983e-06
-2.31493e-06
-7.2103e-07
-1.45745e-06
-3.75854e-07
-5.59431e-07
-8.49994e-08
3.15425e-07
7.97077e-08
1.04573e-06
1.07722e-07
1.50259e-06
3.8476e-08
1.66251e-06
-8.01954e-08
1.57947e-06
-2.23144e-07
1.30217e-06
-3.7028e-07
8.5162e-07
2.93871e-07
-4.92674e-07
-3.39205e-07
2.57128e-05
-9.85169e-07
2.39691e-05
-1.53191e-06
1.87543e-05
-1.8793e-06
1.26448e-05
-1.91176e-06
6.39803e-06
-1.67115e-06
7.93505e-07
-1.48336e-06
-2.58831e-06
-1.3873e-06
-4.12658e-06
-1.37755e-06
-4.5771e-06
-1.41057e-06
-4.3536e-06
-1.42464e-06
-3.81484e-06
-1.37179e-06
-3.16492e-06
-1.22693e-06
-2.46001e-06
-9.86132e-07
-1.69849e-06
-6.73864e-07
-8.7196e-07
-3.51532e-07
-7.18235e-09
-1.11686e-07
8.05609e-07
-1.6657e-08
1.40729e-06
-5.4921e-08
1.70054e-06
-1.73067e-07
1.69746e-06
-3.32314e-07
1.46115e-06
-5.08512e-07
1.02809e-06
4.57441e-07
-6.72555e-07
1.3015e-07
2.55828e-05
-1.23955e-07
2.42232e-05
-3.95214e-07
1.90256e-05
-5.09065e-07
1.27586e-05
-3.42156e-07
6.23107e-06
-2.66579e-07
7.17859e-07
-3.705e-07
-2.48448e-06
-5.49863e-07
-3.94734e-06
-7.80924e-07
-4.34619e-06
-1.02204e-06
-4.11266e-06
-1.21744e-06
-3.61964e-06
-1.32493e-06
-3.05765e-06
-1.32106e-06
-2.46414e-06
-1.19599e-06
-1.82383e-06
-9.57923e-07
-1.11031e-06
-6.47847e-07
-3.17555e-07
-3.4977e-07
5.07232e-07
-1.70863e-07
1.22809e-06
-1.49681e-07
1.67909e-06
-2.46507e-07
1.79408e-06
-4.06999e-07
1.62158e-06
-5.97491e-07
1.21801e-06
6.44494e-07
-7.84947e-07
5.41364e-07
2.50413e-05
7.04274e-07
2.40603e-05
7.48719e-07
1.89811e-05
9.20212e-07
1.25871e-05
1.16459e-06
5.9866e-06
1.05232e-06
8.30024e-07
7.54425e-07
-2.18672e-06
3.19117e-07
-3.51218e-06
-1.59674e-07
-3.86757e-06
-5.89768e-07
-3.68277e-06
-9.39964e-07
-3.26966e-06
-1.18596e-06
-2.8119e-06
-1.3138e-06
-2.33655e-06
-1.31371e-06
-1.82419e-06
-1.18118e-06
-1.24313e-06
-9.31436e-07
-5.676e-07
-6.22332e-07
1.97829e-07
-3.65247e-07
9.70716e-07
-2.57789e-07
1.57136e-06
-3.08359e-07
1.84445e-06
-4.54694e-07
1.76751e-06
-6.47217e-07
1.41065e-06
8.43412e-07
-8.46785e-07
8.29341e-07
2.42121e-05
1.30912e-06
2.35805e-05
1.65174e-06
1.86384e-05
2.09299e-06
1.21457e-05
2.37004e-06
5.70944e-06
2.19463e-06
1.0053e-06
1.71084e-06
-1.70307e-06
1.0699e-06