/*--------------------------------*- C++ -*----------------------------------*\
| =========                 |                                                 |
| \\      /  F ield         | OpenFOAM: The Open Source CFD Toolbox           |
|  \\    /   O peration     | Version:  2312                                  |
|   \\  /    A nd           | Website:  www.openfoam.com                      |
|    \\/     M anipulation  |                                                 |
\*---------------------------------------------------------------------------*/
FoamFile
{
    version     2.0;
    format      ascii;
    arch        "LSB;label=32;scalar=64";
    class       volScalarField;
    location    "5.85";
    object      alpha.water_0;
}
// * * * * * * * * * * * * * * * * * * * * * * * * * * * * * * * * * * * * * //

dimensions      [0 0 0 0 0 0 0];

internalField   nonuniform List<scalar> 
2268
(
2.95564e-07
2.97065e-07
2.83975e-07
1.71962e-07
3.87107e-08
4.43228e-09
9.97854e-10
6.0019e-10
4.42467e-10
3.25612e-10
2.40485e-10
1.87435e-10
1.52808e-10
1.28107e-10
1.13459e-10
1.08944e-10
1.18428e-10
1.48209e-10
2.00074e-10
3.12036e-10
7.2225e-10
1.27613e-09
1.3648e-09
1.81443e-07
1.62748e-07
8.20967e-08
2.57939e-08
2.3669e-09
1.67706e-09
1.61814e-09
1.37101e-09
9.44192e-10
6.09483e-10
4.56851e-10
4.0009e-10
3.83694e-10
3.70635e-10
3.44204e-10
2.73123e-10
2.37918e-10
2.57715e-10
3.54612e-10
4.89882e-10
8.64297e-10
1.29244e-09
1.32992e-09
2.61401e-08
1.18276e-08
8.4903e-09
8.44543e-09
8.6201e-09
8.5258e-09
9.1547e-09
8.15689e-09
2.77472e-09
1.22344e-09
8.30845e-10
7.80868e-10
8.5439e-10
9.25366e-10
9.24176e-10
8.74612e-10
7.24161e-10
5.38606e-10
5.18623e-10
5.99159e-10
9.01953e-10
1.1302e-09
1.06602e-09
3.00462e-10
2.99915e-10
3.00424e-10
2.99878e-10
3.00403e-10
2.99894e-10
3.00441e-10
2.99933e-10
3.32977e-10
3.23026e-10
3.17132e-10
3.56067e-10
4.55395e-10
5.40599e-10
5.77624e-10
5.66469e-10
5.00406e-10
4.59556e-10
4.71333e-10
5.67091e-10
7.47805e-10
8.13358e-10
7.36955e-10
0.0316655
0.029321
0.0253701
0.0205458
0.0157703
0.0113774
0.00666596
0.000988565
4.12264e-16
4.75989e-22
2.4871e-22
9.78377e-23
-5.11182e-29
-3.29144e-14
-2.37349e-28
3.61851e-12
2.01889e-11
8.37944e-11
1.50064e-10
2.02321e-10
2.60475e-10
2.60261e-10
2.3555e-10
0.687905
0.679232
0.664283
0.645032
0.621685
0.593494
0.56069
0.521273
0.461252
0.386595
0.302018
0.225751
0.148719
0.0783549
0.0243983
1.98749e-25
2.03753e-25
-4.51875e-16
-7.54767e-17
-2.13907e-16
-1.03728e-15
-1.33009e-15
6.13889e-21
0.998309
0.99865
0.99849
0.997713
0.996701
0.996594
0.9969
0.997538
0.995567
0.988848
0.970064
0.924707
0.860536
0.772295
0.655364
0.512824
0.371956
0.203808
0.0940488
0.0430093
0.0289537
0.0214273
0.015101
0.999459
0.999459
0.999459
0.999458
0.999262
0.999543
0.999704
0.999705
0.999705
0.999741
0.9997
0.999753
0.999785
0.999785
0.999755
0.979589
0.867702
0.80437
0.740391
0.672583
0.61313
0.569444
0.533498
0.0066898
0.00486073
0.00228935
0.00297247
0.00391996
0.00569989
0.00586737
0.00600526
0.00636372
0.0068337
0.0072168
0.00659081
0.00371619
0.00329545
0.00335682
0.00323152
0.00233909
0.0021115
0.00229343
0.00153271
0.000659849
0.000110317
-9.9778e-17
-1.31261e-11
-4.26429e-07
-6.15902e-07
-9.8653e-07
-6.56017e-07
6.07011e-17
8.64054e-19
8.05233e-19
-8.89721e-07
-7.38293e-07
5.08435e-19
-3.39033e-07
-2.91351e-07
-1.2101e-08
2.68905e-22
8.08037e-05
7.93197e-05
8.05293e-05
0.0246759
0.077399
0.122487
0.168817
0.194102
0.200481
0.18237
0.166772
0.134101
0.123644
0.111083
0.0785624
0.0410916
0.0510129
0.0726313
0.0732572
0.00976302
0.155863
0.404349
0.598202
0.690886
0.756523
0.848116
0.887095
0.912768
0.943316
0.955228
0.903458
0.751398
0.713435
0.652109
0.460085
0.485669
0.746196
0.530977
0.517928
0.748896
0.918426
0.972236
0.976987
0.952297
0.960209
0.989842
0.99183
0.991727
0.972678
0.986835
0.986545
0.932822
0.913864
0.635757
0.827712
0.953277
0.820351
0.757022
0.98566
0.990413
0.990413
0.990328
0.978521
0.97869
0.991588
0.991828
0.985451
0.845958
0.962963
0.98906
0.983467
0.943591
0.70042
0.776773
0.953244
0.953249
0.864663
0.991379
0.989109
0.989095
0.990594
0.991531
0.990587
0.991554
0.99183
0.921537
0.723998
0.917579
0.989072
0.989095
0.858084
0.69929
0.918242
0.953065
0.925797
0.992414
0.991413
0.990772
0.990079
0.988242
0.991536
0.991542
0.991548
0.99134
0.823285
0.724867
0.88823
0.935918
0.932451
0.88424
0.73213
0.949247
0.953117
0.835225
0.996702
0.999406
0.999459
0.999064
0.997075
0.993616
0.99781
0.999785
0.999785
0.999785
0.999785
0.999785
0.999785
0.999785
0.999705
0.996697
0.994225
0.994809
0.993496
0.989795
0.988779
0.989631
0.983065
0.943017
0.923183
0.888908
0.821394
0.779691
0.819343
0.871213
0.907014
0.926509
0.939093
0.954462
0.987133
0.994179
0.994422
0.989204
0.990073
0.990139
0.990387
0.992374
0.989297
0.988034
0.989555
0.986707
0.258292
0.23152
0.223907
0.213612
0.141223
0.107464
0.129134
0.215615
0.396452
0.601746
0.699684
0.701183
0.685326
0.714853
0.768712
0.776863
0.804865
0.813593
0.825713
0.84215
0.912349
0.969514
0.99151
3.32548e-26
-4.29289e-10
-1.02109e-20
5.60476e-21
7.24838e-21
8.18431e-10
0.000948341
4.19328e-06
0.00123957
0.033918
0.0619576
0.0615886
0.0521323
0.0705851
0.0910314
0.106653
0.111389
0.118566
0.144918
0.1531
0.172295
0.411615
0.631894
8.2758e-06
6.72704e-06
-1.05275e-23
-3.79128e-39
-1.75157e-24
1.6089e-05
0.000124668
4.08407e-06
1.10762e-09
-2.18084e-11
-5.18435e-08
-1.94236e-07
-2.59356e-08
-8.89565e-09
-1.1182e-08
-3.64248e-07
-4.83461e-07
-4.5707e-08
-1.46199e-06
-1.93385e-06
1.07289e-15
1.14498e-21
5.19826e-21
4.93348e-05
3.89222e-05
9.57191e-05
0.000118515
8.76247e-05
4.30048e-07
4.02452e-07
1.33623e-06
1.20726e-07
-1.56775e-13
1.15718e-05
4.37509e-05
2.01355e-05
9.67911e-06
7.88299e-06
9.33828e-05
0.000127099
0.000173341
0.00182542
0.0021333
0.000612173
0.00015507
1.93462e-08
0.000211239
5.62279e-05
0.000189556
0.00038774
0.000230804
0.00152617
0.000706519
1.06779e-24
-7.48992e-13
-3.44109e-23
6.36152e-05
9.2918e-05
0.00011574
0.000160494
0.000152633
0.000167476
0.000362288
0.000380565
0.00130017
0.0112536
0.0198471
0.0121312
0.000170405
0.000227585
0.000108845
7.47745e-05
0.00168755
0.00427973
0.00429654
0.00421861
0.00142987
0.000328041
0.000337174
0.000376009
0.000111777
8.0722e-05
0.000370426
0.00234916
0.0070583
0.00852226
0.00558537
0.00326806
0.0135064
0.0198477
0.0198484
0.0198477
0.000171075
5.80438e-05
6.98391e-05
0.00011884
0.00148
0.00415172
0.00459263
0.00459205
0.00427802
0.00352865
0.00206388
0.000261296
6.51839e-05
0.000143267
0.00498175
0.0100368
0.0100406
0.0100368
0.00997668
0.00921221
0.0120304
0.0190175
0.0198484
5.3495e-06
1.45787e-07
2.15515e-05
8.11326e-05
1.89097e-05
0.00026187
0.0014226
0.00241543
0.00360635
0.00314111
0.00174539
0.000359316
3.94462e-05
0.000261329
0.00289891
0.00324089
0.00413089
0.00481527
0.00244422
0.000643862
6.80234e-05
0.000303346
0.00109692
1.63608e-08
1.6375e-08
2.43817e-08
2.84402e-05
3.7057e-06
1.35157e-10
5.14211e-16
-4.49163e-10
0.000151232
0.000368272
0.000177886
0.00014464
3.93342e-05
0.000271054
4.20578e-05
5.02509e-08
3.54e-21
1.38409e-06
2.92814e-12
1.30517e-19
9.03818e-07
9.73117e-07
4.72776e-07
6.73902e-08
3.92859e-08
2.46222e-08
3.16687e-08
1.75376e-07
5.29312e-07
5.64874e-07
3.63267e-07
2.23672e-07
4.86431e-07
7.15046e-07
9.33823e-07
1.94364e-05
4.08658e-05
4.07202e-06
1.01916e-09
3.41911e-21
7.44755e-07
8.89905e-07
5.38606e-10
1.22871e-05
3.22569e-05
3.21527e-05
1.30718e-07
8.14006e-08
8.14778e-09
1.08735e-08
4.76274e-08
1.90378e-07
3.49654e-07
3.7858e-07
4.76128e-07
5.4846e-07
4.65757e-07
4.06023e-07
5.44585e-07
6.41623e-07
5.40082e-08
1.06397e-06
6.00666e-06
6.39384e-06
1.08636e-06
9.2649e-06
3.19148e-05
3.23365e-05
2.07582e-05
1.32379e-07
1.05857e-07
7.42504e-09
7.28143e-09
1.25212e-08
6.75897e-08
1.56888e-07
2.64283e-07
3.28012e-07
4.96733e-07
5.71025e-07
4.11772e-07
6.42246e-09
6.35277e-09
6.42255e-09
4.57844e-06
7.6041e-06
3.07281e-06
9.72167e-06
2.02927e-05
1.71387e-05
1.60084e-06
9.44595e-07
1.152e-07
7.10489e-08
9.32622e-09
7.20986e-09
7.20912e-09
2.4701e-08
8.06587e-08
1.26223e-07
1.56231e-07
1.72732e-07
3.51708e-07
2.29236e-07
1.14509e-08
6.29105e-09
6.37438e-09
1.98663e-06
5.31461e-06
1.28752e-06
6.86605e-06
3.53281e-06
1.12744e-06
1.13508e-06
8.69737e-07
5.40461e-08
3.08541e-08
1.01849e-08
7.20964e-09
8.63559e-09
1.54535e-08
3.11802e-08
4.37865e-08
5.05705e-08
4.69017e-08
4.21307e-08
5.49528e-08
1.27047e-08
6.16618e-09
3.36463e-08
4.39306e-07
3.84888e-07
2.57379e-07
1.98615e-07
2.35517e-09
2.07389e-06
8.93411e-06
1.08156e-06
1.98962e-08
1.01181e-08
6.457e-09
6.41877e-09
6.89776e-09
7.9486e-09
9.03006e-09
1.06941e-08
1.13222e-08
9.24771e-09
5.11429e-09
7.08902e-09
6.5176e-09
5.50116e-09
2.40162e-08
9.68731e-08
5.58041e-08
9.21566e-09
5.2885e-09
2.26189e-09
8.13972e-06
1.33139e-05
1.2097e-06
1.19187e-08
4.90232e-09
4.0674e-09
4.68116e-09
4.66668e-09
4.10152e-09
3.60743e-09
2.98991e-09
2.58878e-09
1.68074e-09
1.09621e-09
1.16108e-09
2.15055e-09
3.20372e-09
4.04948e-09
7.71675e-09
5.28787e-09
3.06117e-09
2.63116e-09
1.99952e-09
5.97504e-06
1.33409e-05
7.87367e-06
1.20122e-08
3.37091e-09
2.65565e-09
3.10255e-09
2.94286e-09
2.40578e-09
1.84212e-09
1.39384e-09
1.13471e-09
9.07412e-10
1.0037e-09
1.26669e-09
1.70333e-09
2.31012e-09
2.7145e-09
3.02887e-09
2.95987e-09
2.3984e-09
2.14907e-09
1.92751e-09
1.92989e-09
6.88118e-06
1.23726e-05
1.19857e-08
2.3638e-09
1.69972e-09
1.92633e-09
1.70948e-09
1.34666e-09
1.03659e-09
7.75396e-10
6.18361e-10
5.73775e-10
6.42332e-10
8.02627e-10
1.05513e-09
1.44525e-09
1.88159e-09
2.27028e-09
2.23873e-09
1.82859e-09
1.9071e-09
2.34454e-09
1.09498e-08
4.33809e-07
2.78529e-07
1.16385e-08
1.63775e-09
1.05372e-09
1.13908e-09
9.71145e-10
7.61951e-10
5.7784e-10
4.35184e-10
3.42734e-10
3.11086e-10
3.33334e-10
4.0215e-10
5.2084e-10
7.10642e-10
9.51042e-10
1.18474e-09
1.25774e-09
1.16852e-09
1.06835e-09
3.70045e-09
2.89241e-08
2.9327e-08
1.82626e-07
1.1229e-08
1.09432e-09
6.93774e-10
7.05853e-10
6.07832e-10
5.05778e-10
3.92321e-10
2.78618e-10
2.09436e-10
1.71765e-10
1.62637e-10
1.79337e-10
2.22567e-10
2.97624e-10
4.00371e-10
5.13066e-10
5.9342e-10
6.64653e-10
7.66363e-10
2.76774e-09
1.5959e-08
4.69802e-08
6.05575e-08
1.07722e-08
7.31403e-10
5.06823e-10
5.61911e-10
6.08321e-10
5.9241e-10
4.49282e-10
2.64345e-10
1.79428e-10
1.24635e-10
9.36314e-11
8.40761e-11
9.12779e-11
1.14519e-10
1.52631e-10
2.02496e-10
2.60237e-10
3.42325e-10
5.14441e-10
1.45029e-09
5.37447e-09
2.12158e-08
3.53301e-08
1.04029e-08
5.32567e-10
4.74577e-10
6.81622e-10
1.0161e-09
1.08733e-09
7.14062e-10
3.15699e-10
2.01365e-10
1.25458e-10
7.84828e-11
5.28359e-11
4.34833e-11
4.49275e-11
5.63212e-11
7.75109e-11
1.11791e-10
1.69389e-10
2.61932e-10
5.59825e-10
1.03272e-09
3.24704e-09
5.20525e-09
1.00852e-08
4.617e-10
5.20748e-10
1.21915e-09
1.66389e-09
1.69263e-09
9.64084e-10
3.56795e-10
2.39763e-10
1.47188e-10
8.39646e-11
4.79868e-11
2.99071e-11
2.23525e-11
2.22561e-11
2.96615e-11
4.59951e-11
7.68068e-11
1.25031e-10
2.16717e-10
3.53625e-10
4.53048e-10
1.38709e-09
9.83387e-09
4.57543e-10
8.36123e-10
1.66148e-09
2.56679e-09
3.3229e-09
1.14668e-09
3.82182e-10
2.77802e-10
1.68954e-10
9.33161e-11
5.06883e-11
2.85924e-11
1.65037e-11
1.14808e-11
1.19873e-11
1.76123e-11
3.01358e-11
5.10524e-11
8.99226e-11
1.4575e-10
3.22378e-10
6.95074e-10
9.62947e-09
5.64035e-10
1.25045e-09
2.47658e-09
5.24268e-09
9.49291e-09
9.01581e-10
4.01549e-10
3.23099e-10
1.86864e-10
9.74173e-11
5.42331e-11
2.96383e-11
1.60648e-11
8.74219e-12
5.98438e-12
6.7061e-12
1.05802e-11
1.78245e-11
3.13234e-11
5.54981e-11
1.01104e-10
2.33021e-10
9.47054e-09
8.84268e-10
2.32974e-09
4.76269e-09
1.99115e-08
2.03588e-08
4.81036e-10
4.26511e-10
3.69534e-10
1.88504e-10
9.42761e-11
5.23275e-11
2.98141e-11
1.6586e-11
8.55374e-12
4.3471e-12
2.98462e-12
3.63334e-12
5.64296e-12
9.53983e-12
1.58331e-11
3.11651e-11
5.60345e-11
9.50232e-09
2.8627e-09
1.18382e-08
4.19714e-08
1.2181e-07
1.37297e-08
4.41074e-10
4.78461e-10
3.63161e-10
1.69032e-10
8.24599e-11
4.67282e-11
2.79039e-11
1.61608e-11
8.58225e-12
4.13242e-12
2.0055e-12
1.33419e-12
1.79168e-12
2.83565e-12
4.56007e-12
7.35016e-12
1.39938e-11
9.92108e-09
1.13435e-08
8.17295e-08
4.26117e-07
3.11974e-07
7.11195e-10
4.40605e-10
5.35299e-10
3.29233e-10
1.37086e-10
6.47686e-11
3.78102e-11
2.41312e-11
1.47536e-11
8.21839e-12
4.05468e-12
1.83105e-12
6.16069e-13
6.18495e-13
8.75421e-13
1.30048e-12
2.17692e-12
3.40551e-12
1.14945e-08
3.17125e-08
2.03285e-07
6.06227e-07
3.0393e-07
4.43911e-10
5.26093e-10
5.66136e-10
2.78048e-10
1.01827e-10
4.61891e-11
2.7785e-11
1.90237e-11
1.24448e-11
7.39683e-12
3.79991e-12
1.69455e-12
5.72683e-13
2.32759e-13
2.84843e-13
4.14673e-13
6.12033e-13
9.52455e-13
1.38776e-08
5.20493e-08
2.70332e-07
6.06847e-07
1.13313e-07
4.43568e-10
7.66942e-10
5.31425e-10
2.03617e-10
7.04527e-11
3.07272e-11
1.87575e-11
1.34808e-11
9.53062e-12
6.1137e-12
3.38044e-12
1.61775e-12
5.55093e-13
1.16161e-13
9.6656e-14
1.27798e-13
1.90401e-13
2.58174e-13
1.76044e-08
9.30042e-08
5.40935e-07
4.4626e-07
3.67795e-09
5.96237e-10
1.00467e-09
4.3217e-10
1.30688e-10
4.78851e-11
1.95249e-11
1.20166e-11
8.83974e-12
6.49134e-12
4.50957e-12
2.77525e-12
1.44174e-12
5.49574e-13
8.92635e-14
3.52492e-14
3.74087e-14
5.12934e-14
6.93524e-14
1.98567e-08
1.43283e-07
6.28714e-07
2.20445e-07
5.51551e-10
9.75272e-10
1.34766e-09
4.28279e-10
1.14843e-10
3.27239e-11
1.17828e-11
6.99486e-12
5.19294e-12
3.92178e-12
2.95275e-12
2.00964e-12
1.1589e-12
5.27974e-13
9.34917e-14
1.58921e-14
1.11868e-14
1.52196e-14
1.78413e-14
2.31123e-08
1.82665e-07
6.28732e-07
2.28067e-07
5.25434e-10
1.57834e-09
1.83748e-09
4.81984e-10
1.14041e-10
2.37748e-11
6.92733e-12
4.01345e-12
2.80969e-12
2.12371e-12
1.66443e-12
1.26223e-12
8.28598e-13
4.30207e-13
1.12644e-13
1.16371e-14
3.65923e-15
3.9934e-15
4.80946e-15
2.81232e-08
2.58994e-07
6.28714e-07
1.85893e-07
5.50696e-10
2.8009e-09
2.30317e-09
5.56183e-10
1.18136e-10
1.91815e-11
4.0118e-12
2.15355e-12
1.46833e-12
1.03327e-12
7.97267e-13
6.59693e-13
5.04039e-13
3.1474e-13
1.01907e-13
1.21666e-14
1.68706e-15
1.22338e-15
1.3696e-15
2.9939e-08
3.44703e-07
6.28732e-07
7.19121e-08
2.01836e-09
7.53987e-09
2.64949e-09
5.87711e-10
1.16899e-10
1.57857e-11
2.22809e-12
1.06706e-12
7.18585e-13
4.60498e-13
3.29599e-13
2.80138e-13
2.46943e-13
1.89507e-13
8.12546e-14
1.34493e-14
1.28088e-15
3.57593e-16
3.77096e-16
3.05291e-08
3.15792e-07
5.12943e-07
5.47391e-09
4.60283e-09
1.08778e-08
2.80573e-09
5.40816e-10
9.74538e-11
1.19576e-11
1.16973e-12
5.0271e-13
3.28823e-13
1.92498e-13
1.19287e-13
9.455e-14
9.18197e-14
8.6002e-14
5.12985e-14
1.25203e-14
1.3116e-15
1.35381e-16
9.38663e-17
2.71971e-08
2.10171e-07
2.52162e-07
4.03211e-09
1.17446e-08
1.10833e-08
2.5641e-09
4.36844e-10
6.51199e-11
7.14842e-12
5.44484e-13
1.97992e-13
1.33098e-13
7.40466e-14
3.89113e-14
2.57049e-14
2.50399e-14
2.8447e-14
2.49725e-14
9.34657e-15
1.32336e-15
8.14603e-17
2.29963e-17
2.27354e-08
1.78061e-07
2.71956e-07
4.03415e-09
1.39568e-08
7.1597e-09
1.46297e-09
2.79389e-10
2.94948e-11
2.77621e-12
1.7774e-13
5.94907e-14
4.28034e-14
2.42537e-14
1.14428e-14
5.81698e-15
4.86455e-15
6.4399e-15
8.06206e-15
5.36956e-15
9.91156e-16
7.4693e-17
7.08388e-18
2.20477e-08
1.1644e-07
2.33328e-07
3.92374e-09
1.33302e-08
3.15549e-09
6.1654e-10
1.1524e-10
9.89222e-12
6.50782e-13
3.31048e-14
1.21332e-14
9.75242e-15
5.91559e-15
2.73423e-15
1.11152e-15
7.04018e-16
1.02263e-15
1.79442e-15
2.10881e-15
6.18899e-16
6.60965e-17
4.74207e-18
2.43701e-08
3.68456e-08
2.6114e-08
1.04057e-08
3.36192e-09
4.59053e-10
1.03424e-10
1.69187e-11
1.05815e-12
4.20046e-14
1.82545e-15
1.26972e-15
1.19731e-15
8.18708e-16
3.9787e-16
1.48909e-16
7.04048e-17
1.15417e-16
3.03589e-16
5.78011e-16
3.45181e-16
5.09116e-17
3.43177e-18
0.977526
0.986433
0.993073
0.993242
0.978516
0.992599
0.993846
0.993852
0.991274
0.987055
0.986193
0.984226
0.581599
0.364983
0.314534
0.289375
-5.1026e-24
-7.11496e-23
-8.88806e-07
-7.92158e-07
8.33831e-06
4.85656e-05
0.000290395
0.00045841
0.000693786
0.000158359
0.000312906
0.000611236
0.0135451
0.000887202
0.00195953
0.00352118
0.0191101
0.00204771
1.85599e-05
0.00153468
0.000196569
1.35087e-06
1.60007e-05
4.61253e-05
6.7964e-07
1.30943e-06
1.11748e-06
6.70966e-07
3.23669e-05
3.23966e-05
1.6153e-05
8.43182e-07
4.95468e-06
6.4751e-07
5.94011e-07
5.9471e-07
1.03996e-06
9.00015e-07
5.9471e-07
5.94793e-07
9.46591e-07
9.59631e-07
6.16041e-07
1.00309e-06
2.3034e-07
2.30598e-07
1.37637e-06
7.37311e-06
2.30288e-07
3.37961e-07
5.89946e-06
9.98045e-06
1.22268e-06
6.45162e-06
1.04773e-05
8.4691e-06
1.48849e-05
1.52169e-05
1.52128e-05
8.45313e-06
3.18642e-07
1.38762e-05
1.52007e-05
1.02862e-05
1.3559e-07
5.0268e-08
3.78201e-08
3.81268e-08
5.87206e-08
5.75001e-08
5.44134e-08
4.60164e-08
2.78376e-08
1.51256e-08
2.14591e-09
3.30808e-08
5.88593e-09
5.20687e-09
2.1644e-09
2.06117e-09
1.82947e-09
2.05153e-09
2.07246e-09
2.05258e-09
8.51267e-10
1.44945e-09
1.99428e-09
2.55775e-09
3.14258e-10
3.87419e-10
4.88898e-10
5.26654e-10
8.10302e-11
1.03194e-10
1.15554e-10
1.27405e-10
1.87051e-11
2.14826e-11
2.60749e-11
2.76917e-11
4.37251e-12
5.48058e-12
5.8091e-12
6.527e-12
1.20694e-12
1.30998e-12
1.51085e-12
1.62594e-12
2.99792e-13
3.2598e-13
3.38149e-13
3.63956e-13
7.49208e-14
7.24281e-14
7.71682e-14
7.87508e-14
1.93483e-14
1.79135e-14
1.68086e-14
1.73097e-14
4.67207e-15
4.19601e-15
4.13156e-15
3.99077e-15
1.27147e-15
1.11799e-15
1.07465e-15
1.07327e-15
3.46395e-16
2.99071e-16
2.88222e-16
3.12989e-16
8.8928e-17
7.25672e-17
7.08857e-17
7.40219e-17
1.83821e-17
1.6416e-17
1.51763e-17
1.61022e-17
3.85706e-18
3.09947e-18
2.8227e-18
2.67924e-18
6.85409e-19
5.34759e-19
4.81941e-19
4.55244e-19
1.31008e-19
7.511e-20
6.9331e-20
5.45126e-20
0.993229
0.99235
0.983859
0.972953
0.983681
0.991528
0.991533
0.975276
0.846811
0.485154
0.76978
0.945653
0.945649
0.939705
0.937924
0.91701
0.950909
0.952686
0.826105
0.992798
0.961535
0.905285
0.919817
0.983562
0.934626
0.642364
0.33592
0.170153
0.302736
0.907109
0.942208
0.945228
0.944998
0.946159
0.946232
0.946204
0.930751
0.862399
0.919999
0.799244
0.763652
0.752634
0.674343
0.206962
3.4325e-12
-1.43519e-07
1.40824e-05
0.127457
0.31213
0.373616
0.550122
0.622103
0.532129
0.53488
0.586023
0.830853
0.910218
0.263633
0.184833
0.119917
0.0742799
0.0263554
1.42538e-05
4.85077e-05
6.71761e-09
-1.94713e-24
-7.33849e-24
7.27118e-24
1.14753e-12
0.000684099
0.000163942
-9.02186e-23
-2.14898e-32
0.0305777
0.172061
0.44635
5.65173e-17
4.8207e-17
4.63358e-12
1.33338e-05
1.50208e-05
4.13561e-05
0.000465419
4.47556e-07
1.61298e-06
8.90312e-06
1.33777e-05
8.64157e-06
5.70518e-06
6.12604e-06
5.56131e-07
-2.37356e-11
-1.15647e-06
1.20738e-05
0.000381729
0.000677599
0.00727894
0.0137708
0.0121623
0.00198049
0.00017869
0.000413829
0.00066442
0.000554535
0.000575391
0.000427517
0.000260693
0.000174309
0.00028571
0.000433214
0.00049328
0.000628068
0.00085895
0.00130435
0.000588051
0.000918468
0.0212249
0.0365822
0.0217501
0.00429659
0.00273391
0.00316208
0.00510054
0.0087764
0.0063804
0.00144287
0.000152979
0.000282695
0.00154636
0.00253723
0.00253759
0.00253725
0.00253762
0.00348027
0.00155119
0.0190471
0.0365672
0.0365822
0.030245
0.0176664
0.0163547
0.0191817
0.0192105
0.0191815
0.00543228
0.000148248
0.0001344
0.00101196
0.00246994
0.00249379
0.00218131
0.00223803
0.00284265
0.003615
0.0154702
0.0272521
0.027595
0.0193865
0.0142326
0.00984088
0.00916866
0.0112419
0.00883319
0.00392021
0.000571583
1.50324e-05
1.11483e-07
0.000180834
0.000324239
0.00022652
0.000207645
0.000213331
0.000765899
0.000178997
6.40093e-12
-2.12401e-19
-7.1309e-11
-6.13417e-10
1.29222e-24
5.66041e-26
2.4564e-24
9.71621e-24
6.53771e-05
7.80108e-05
1.9659e-06
1.11231e-07
1.7833e-07
2.38075e-07
2.45225e-07
2.9841e-07
1.66632e-06
2.87641e-06
1.93618e-06
9.63308e-07
3.51505e-07
7.56959e-09
6.0678e-08
4.8484e-08
1.78378e-24
7.33301e-07
1.02258e-05
1.05424e-05
5.45003e-05
1.59085e-06
1.51919e-06
1.82416e-07
2.27416e-07
1.36827e-06
4.23657e-06
7.17883e-06
2.21969e-05
2.2596e-05
9.32297e-06
2.99852e-06
7.39827e-09
5.17338e-08
8.8442e-08
7.31539e-07
2.81109e-06
5.1149e-06
3.14498e-05
8.48202e-05
4.53036e-05
1.59088e-06
3.64124e-06
6.22964e-07
1.56237e-06
1.53437e-05
5.94794e-07
3.41557e-06
5.13949e-06
3.95905e-06
5.57145e-07
2.50637e-08
2.68154e-08
3.36446e-07
5.56043e-06
7.81817e-06
3.01773e-06
1.68441e-06
4.18735e-06
1.17825e-05
2.16318e-06
1.15692e-06
4.0841e-07
6.09267e-07
1.84097e-05
5.94835e-07
6.00565e-07
6.18085e-07
6.43404e-07
2.67872e-07
3.2186e-08
7.43236e-07
2.67044e-06
7.73388e-06
7.83919e-06
7.78851e-06
2.49975e-06
3.3436e-06
7.30427e-06
7.08492e-06
2.51039e-06
1.47198e-07
4.15841e-07
1.84097e-05
5.94794e-07
7.09742e-07
7.53983e-07
1.46455e-06
1.63771e-06
4.31534e-07
2.88127e-06
3.40006e-06
2.46654e-06
3.86096e-06
4.41873e-06
4.8245e-06
4.53948e-06
4.44977e-07
4.62387e-07
1.7359e-07
1.4209e-07
1.04055e-05
1.81716e-05
1.62703e-05
1.88853e-05
5.79768e-06
7.89283e-06
1.1393e-05
3.44257e-06
3.18735e-06
8.51339e-07
5.85777e-08
6.36377e-08
5.7458e-08
3.14331e-06
1.00414e-05
6.9003e-06
2.1833e-07
2.06809e-07
4.01379e-06
1.87089e-05
1.86587e-05
3.4955e-05
4.27642e-05
4.11376e-05
3.21661e-05
2.40875e-05
1.91575e-05
7.7605e-06
1.32664e-07
5.85654e-08
5.82361e-08
5.78869e-08
7.91023e-06
2.04742e-05
2.73304e-05
9.62939e-06
7.85351e-06
1.62854e-05
1.66575e-05
4.18077e-06
8.41196e-06
4.1493e-05
4.28752e-05
4.28738e-05
4.28766e-05
3.84247e-05
1.76521e-05
2.26251e-06
1.33694e-06
1.31621e-07
8.93921e-08
5.82673e-06
3.56168e-05
4.02258e-05
4.02252e-05
3.64997e-05
1.24418e-05
2.9101e-06
8.78229e-07
1.31808e-06
5.85693e-06
4.00187e-05
4.28766e-05
4.28753e-05
1.71551e-05
1.00414e-05
6.80543e-06
3.62629e-06
1.90249e-06
1.52425e-06
5.1515e-06
6.17269e-06
1.0279e-05
9.34083e-06
2.73976e-06
8.5517e-07
9.8534e-08
3.77721e-07
1.584e-07
5.54925e-08
2.88938e-06
3.37893e-05
1.77208e-05
5.44487e-07
5.30762e-07
5.37221e-06
6.14862e-06
4.34452e-06
2.20797e-06
3.13967e-06
2.59211e-06
2.50248e-06
1.18882e-07
1.19259e-07
1.25951e-07
9.52149e-08
3.18214e-07
1.60484e-07
5.49413e-08
1.10105e-09
1.08725e-09
1.09695e-09
5.88446e-07
5.1804e-07
9.82782e-10
1.8948e-07
5.38907e-07
2.41666e-07
8.28578e-07
2.36918e-06
1.24638e-06
1.53299e-07
2.85156e-07
3.36516e-07
1.36387e-07
7.83347e-08
2.02745e-08
2.04299e-08
1.09927e-08
2.11278e-09
1.66313e-09
1.79362e-09
9.82782e-10
9.88076e-10
5.55957e-10
5.56625e-10
5.61184e-10
5.61832e-10
1.5643e-08
2.40788e-09
1.7249e-07
3.64934e-07
4.2952e-07
2.62167e-07
7.83347e-08
6.42112e-08
6.46391e-08
3.48992e-08
1.05503e-08
7.84058e-09
5.6545e-09
3.83166e-09
2.61763e-09
1.82648e-09
1.31318e-09
1.27296e-09
4.49332e-09
2.40793e-09
2.40463e-09
2.40139e-09
1.16011e-07
4.29532e-07
2.89717e-07
7.83347e-08
4.08883e-08
5.56245e-08
3.05967e-08
1.20853e-08
8.01804e-09
6.35695e-09
4.59365e-09
3.23192e-09
2.3163e-09
2.16334e-09
2.31141e-09
3.09234e-09
3.67322e-09
3.48677e-09
2.39821e-09
2.39184e-09
2.54265e-07
2.73495e-07
8.45255e-08
1.6818e-08
1.45301e-08
6.18263e-09
3.48097e-09
3.50984e-09
2.90572e-09
2.13868e-09
1.71897e-09
1.67025e-09
2.08841e-09
2.93334e-09
4.09477e-09
5.602e-09
7.02266e-09
5.72131e-09
2.38717e-09
5.49719e-08
1.97704e-07
9.09625e-08
1.62519e-09
1.1631e-09
1.46728e-09
1.41958e-09
1.2107e-09
9.90444e-10
8.40537e-10
8.68728e-10
1.11384e-09
1.62205e-09
2.58203e-09
4.27898e-09
6.91371e-09
9.34708e-09
9.15381e-09
4.16464e-09
1.05763e-08
1.41979e-07
1.19582e-07
4.97874e-10
4.84339e-10
4.58319e-10
3.98997e-10
3.32187e-10
3.20284e-10
3.70292e-10
5.0394e-10
7.90439e-10
1.29477e-09
2.14581e-09
3.68158e-09
6.18249e-09
8.93863e-09
7.62626e-09
1.03522e-08
3.58347e-08
1.94638e-07
1.96539e-07
1.30659e-10
1.26639e-10
1.16465e-10
1.07671e-10
1.1224e-10
1.42232e-10
1.96265e-10
3.24692e-10
6.06158e-10
1.17177e-09
2.09182e-09
3.44229e-09
5.38312e-09
6.84295e-09
5.85742e-09
2.59643e-08
1.24192e-07
2.02495e-07
2.02495e-07
2.83846e-11
2.89398e-11
3.05402e-11
3.49601e-11
4.07727e-11
3.87955e-11
5.61502e-11
1.25728e-10
3.56663e-10
9.94338e-10
2.28855e-09
4.26568e-09
5.63042e-09
5.58091e-09
5.5805e-09
6.0277e-08
1.57308e-07
1.60454e-07
2.02481e-07
7.0984e-12
7.61903e-12
8.17298e-12
7.22673e-12
5.51198e-12
6.76714e-12
1.53206e-11
5.12257e-11
1.95434e-10
6.41201e-10
2.44383e-09
5.56057e-09
8.58757e-09
7.84151e-09
5.83554e-09
5.34866e-08
1.56943e-07
1.01432e-07
2.02477e-07
1.69464e-12
1.86813e-12
1.8995e-12
1.04992e-12
1.03537e-12
1.97223e-12
6.21671e-12
2.36583e-11
9.51755e-11
2.7281e-10
2.36294e-09
7.37191e-09
1.29167e-08
1.23811e-08
1.03154e-08
2.72567e-08
8.23121e-08
5.51342e-08
1.77926e-07
3.78693e-13
4.01161e-13
3.85904e-13
2.35889e-13
3.5524e-13
1.00486e-12
3.33747e-12
1.2141e-11
4.68873e-11
1.67812e-10
2.6581e-09
1.00296e-08
2.27152e-08
2.57573e-08
1.12544e-08
4.39274e-09
5.90531e-09
2.57979e-08
6.8115e-08
7.94059e-14
7.4322e-14
7.74132e-14
1.1034e-13
2.10169e-13
6.62529e-13
2.17396e-12
7.93344e-12
3.35411e-11
1.71125e-10
2.98558e-09
1.31079e-08
3.04968e-08
4.1267e-08
1.06925e-08
4.29652e-09
4.29663e-09
2.0437e-08
8.96598e-08
1.69131e-14
1.72155e-14
2.42284e-14
5.57851e-14
1.67774e-13
5.1473e-13
1.6795e-12
6.28284e-12
2.95942e-11
1.80127e-10
2.32024e-09
1.18352e-08
3.16829e-08
4.624e-08
3.40521e-08
4.29757e-09
4.29685e-09
2.28068e-08
1.15205e-07
3.93639e-15
5.22929e-15
1.11454e-14
3.46997e-14
1.21733e-13
4.42752e-13
1.47923e-12
5.20253e-12
2.04232e-11
9.06533e-11
4.22915e-10
3.6038e-09
2.16791e-08
4.42086e-08
4.83022e-08
9.53397e-09
4.30305e-09
1.78377e-08
1.15235e-07
1.2401e-15
1.99377e-15
5.69816e-15
2.09205e-14
8.31234e-14
3.11204e-13
1.10596e-12
3.49733e-12
1.17308e-11
4.21784e-11
1.68997e-10
1.02985e-09
5.74395e-09
2.73309e-08
4.8299e-08
4.55585e-08
1.14519e-08
1.68368e-08
7.22004e-08
3.36854e-16
6.90864e-16
2.38767e-15
9.97577e-15
4.25981e-14
1.78704e-13
6.73694e-13
2.25157e-12
8.19287e-12
3.58348e-11
1.89867e-10
6.54632e-10
1.30585e-09
1.08827e-08
3.53722e-08
4.82381e-08
4.12583e-08
4.36014e-08
8.07893e-08
9.19358e-17
1.91483e-16
7.10162e-16
3.31675e-15
1.6465e-14
7.83126e-14
3.41228e-13
1.23211e-12
4.31323e-12
1.67707e-11
7.74405e-11
4.40173e-10
1.22373e-09
1.84197e-09
1.07634e-08
3.91092e-08
4.54228e-08
1.3963e-07
1.30618e-07
1.70191e-17
3.48476e-17
1.29513e-16
6.84978e-16
4.02563e-15
2.31603e-14
1.15526e-13
5.2038e-13
1.92444e-12
6.64481e-12
2.60937e-11
1.3324e-10
7.38996e-10
1.63339e-09
2.62447e-09
7.22488e-09
4.58069e-08
1.26747e-07
3.68985e-07
2.89637e-18
3.79875e-18
1.21969e-17
6.86304e-17
5.11154e-16
4.14837e-15
2.80255e-14
1.56535e-13
7.18073e-13
2.71165e-12
9.68019e-12
3.69804e-11
1.84514e-10
1.04811e-09
2.20013e-09
1.23531e-09
2.21177e-08
9.62703e-08
3.69039e-07
3.75308e-19
3.62094e-19
7.91403e-19
3.97615e-18
3.3699e-17
3.47504e-16
3.4245e-15
2.71957e-14
1.68447e-13
8.24122e-13
3.21637e-12
1.0532e-11
3.7979e-11
2.01389e-10
8.90709e-10
1.22779e-09
2.28172e-09
6.4616e-08
3.61215e-07
3.96271e-20
2.87424e-20
3.27106e-20
1.03672e-19
8.11772e-19
9.72103e-18
1.35391e-16
1.56772e-15
1.34134e-14
8.8745e-14
4.37227e-13
1.53285e-12
4.46678e-12
1.22408e-11
3.87665e-11
4.35978e-10
4.3961e-10
8.41987e-09
2.60334e-07
)
;

boundaryField
{
    leftWall
    {
        type            zeroGradient;
    }
    rightWall
    {
        type            zeroGradient;
    }
    lowerWall
    {
        type            zeroGradient;
    }
    atmosphere
    {
        type            inletOutlet;
        inletValue      uniform 0;
        value           nonuniform List<scalar> 
46
(
2.43701e-08
3.68456e-08
2.6114e-08
1.04057e-08
3.36192e-09
4.59053e-10
1.03424e-10
1.69187e-11
1.05815e-12
4.20046e-14
1.82545e-15
1.26972e-15
1.19731e-15
8.18708e-16
3.9787e-16
1.48909e-16
7.04048e-17
1.15417e-16
3.03589e-16
5.78011e-16
3.45181e-16
5.09116e-17
0
0
0
0
0
0
0
0
0
0
0
0
0
0
0
0
0
0
0
0
0
4.3961e-10
8.41987e-09
2.60334e-07
)
;
    }
    defaultFaces
    {
        type            empty;
    }
}


// ************************************************************************* //
