/*--------------------------------*- C++ -*----------------------------------*\
| =========                 |                                                 |
| \\      /  F ield         | OpenFOAM: The Open Source CFD Toolbox           |
|  \\    /   O peration     | Version:  2312                                  |
|   \\  /    A nd           | Website:  www.openfoam.com                      |
|    \\/     M anipulation  |                                                 |
\*---------------------------------------------------------------------------*/
FoamFile
{
    version     2.0;
    format      ascii;
    arch        "LSB;label=32;scalar=64";
    class       volScalarField;
    location    "5.85";
    object      alpha.water;
}
// * * * * * * * * * * * * * * * * * * * * * * * * * * * * * * * * * * * * * //

dimensions      [0 0 0 0 0 0 0];

internalField   nonuniform List<scalar> 
2268
(
2.95334e-07
2.96993e-07
2.84336e-07
1.72377e-07
3.88509e-08
4.4157e-09
9.9537e-10
5.99806e-10
4.42257e-10
3.25333e-10
2.40169e-10
1.87011e-10
1.52554e-10
1.27926e-10
1.13396e-10
1.09091e-10
1.18893e-10
1.49032e-10
2.01788e-10
3.14243e-10
7.30008e-10
1.27792e-09
1.36457e-09
1.81355e-07
1.62713e-07
8.20662e-08
2.58197e-08
2.37253e-09
1.67898e-09
1.61796e-09
1.36536e-09
9.40819e-10
6.07195e-10
4.55173e-10
3.98689e-10
3.82079e-10
3.69866e-10
3.42981e-10
2.71975e-10
2.38212e-10
2.59471e-10
3.57015e-10
4.9259e-10
8.70856e-10
1.29308e-09
1.32922e-09
2.58037e-08
1.17078e-08
8.43709e-09
8.42654e-09
8.61991e-09
8.51646e-09
9.13033e-09
8.12719e-09
2.76535e-09
1.21842e-09
8.29135e-10
7.80251e-10
8.54533e-10
9.22991e-10
9.21749e-10
8.72185e-10
7.19364e-10
5.37788e-10
5.18655e-10
6.0222e-10
9.04478e-10
1.12531e-09
1.05755e-09
3.00392e-10
2.99867e-10
3.00382e-10
2.99857e-10
3.00382e-10
2.99867e-10
3.00392e-10
3.06713e-10
3.44588e-10
3.28272e-10
3.20734e-10
3.60004e-10
4.59223e-10
5.4365e-10
5.78707e-10
5.66466e-10
4.99399e-10
4.58878e-10
4.71061e-10
5.68603e-10
7.44376e-10
8.07569e-10
7.25567e-10
0.0323299
0.0299404
0.0259005
0.0208952
0.0158838
0.0111481
0.00588402
6.03175e-12
3.19265e-21
5.24241e-22
2.64025e-22
9.77103e-23
-4.12026e-14
-1.0653e-13
6.06576e-25
6.21732e-12
2.10657e-11
8.48812e-11
1.4913e-10
1.98129e-10
2.50217e-10
2.48286e-10
2.26137e-10
0.690255
0.681557
0.666524
0.646936
0.622747
0.592941
0.557877
0.515528
0.451785
0.37547
0.291106
0.215535
0.13998
0.0715709
0.0200397
1.02716e-25
1.03054e-25
-4.72852e-16
-8.75171e-17
-2.33814e-16
-8.90105e-16
-1.21882e-15
1.39533e-20
0.99833
0.998665
0.998507
0.997738
0.996709
0.996579
0.996782
0.997135
0.994375
0.986054
0.964492
0.916787
0.850267
0.759774
0.641332
0.498969
0.362987
0.200286
0.0969834
0.0500771
0.0370298
0.0290204
0.0212637
0.999459
0.999459
0.999459
0.999459
0.999263
0.99956
0.999711
0.999713
0.999715
0.999747
0.999699
0.999752
0.999781
0.999785
0.999746
0.975482
0.86107
0.803464
0.746112
0.687755
0.638601
0.601944
0.567787
0.00668071
0.00484008
0.00229738
0.00295907
0.00395116
0.00571709
0.00586141
0.00599824
0.00636498
0.00683237
0.00720155
0.00654669
0.00369668
0.00328234
0.00334628
0.00322212
0.00233377
0.00211236
0.00228854
0.00155684
0.000670153
0.000116853
2.15474e-21
2.28715e-22
-3.25779e-07
-4.48302e-07
-8.72807e-07
-5.78101e-07
5.6834e-17
1.24376e-18
1.18703e-18
-8.83818e-07
-7.1962e-07
3.17797e-19
-4.07453e-07
-2.83799e-07
-4.0321e-08
-2.5411e-22
8.07068e-05
7.90428e-05
8.00518e-05
0.022108
0.0766232
0.123064
0.169976
0.195637
0.202242
0.186917
0.173485
0.139737
0.127472
0.113947
0.08021
0.0416481
0.0511076
0.0723119
0.0727672
0.00659997
0.149607
0.39446
0.594359
0.690313
0.756223
0.848049
0.887714
0.914521
0.946402
0.957844
0.910814
0.759585
0.717662
0.655402
0.460293
0.486406
0.748374
0.530268
0.507285
0.741822
0.917254
0.972052
0.976782
0.951434
0.960699
0.990174
0.99183
0.991711
0.968519
0.986144
0.987125
0.93491
0.915124
0.635521
0.828551
0.953246
0.817968
0.75662
0.985356
0.990413
0.990413
0.990267
0.978113
0.978719
0.991659
0.991827
0.983861
0.834093
0.957953
0.989065
0.984014
0.946528
0.705049
0.773777
0.953169
0.953318
0.85703
0.991442
0.989167
0.989153
0.99062
0.991554
0.990664
0.991566
0.99183
0.919709
0.724018
0.914711
0.989075
0.989097
0.861632
0.703881
0.916343
0.953073
0.936323
0.99143
0.991481
0.990729
0.990089
0.988235
0.991557
0.99156
0.991576
0.991645
0.812506
0.724867
0.890921
0.936688
0.93479
0.881811
0.72351
0.948836
0.953104
0.837362
0.996688
0.999406
0.999457
0.999063
0.997026
0.99377
0.998159
0.999785
0.999785
0.999785
0.999785
0.999785
0.999785
0.999785
0.999664
0.996378
0.994051
0.994745
0.993905
0.990564
0.989715
0.989631
0.982575
0.942638
0.923405
0.89034
0.824304
0.786823
0.828936
0.879157
0.913341
0.931448
0.940066
0.957509
0.988921
0.994685
0.994498
0.989357
0.990547
0.990162
0.990603
0.992292
0.989064
0.988083
0.989555
0.984868
0.256971
0.23207
0.226868
0.218669
0.146651
0.115042
0.138682
0.227379
0.415371
0.626204
0.718942
0.718182
0.700153
0.728967
0.778136
0.784983
0.814724
0.821925
0.83229
0.852132
0.91895
0.9737
0.989685
-3.62007e-10
-9.80248e-10
-1.82838e-20
5.63913e-21
1.74345e-20
1.02561e-09
0.000686026
3.70868e-06
0.00235707
0.0417918
0.0723414
0.0708554
0.0592686
0.0785186
0.0982851
0.11411
0.118995
0.128154
0.153335
0.158871
0.187621
0.440721
0.61721
8.19888e-06
6.34919e-06
-7.83198e-23
-2.99304e-46
-1.02888e-23
1.72948e-05
0.000135471
3.57566e-06
5.91888e-10
-1.83161e-11
-4.4374e-08
-1.40941e-07
-1.73165e-08
-4.03195e-09
-8.49262e-09
-3.38828e-07
-4.41424e-07
-5.12326e-08
-1.61281e-06
-1.1027e-06
4.6258e-20
9.04314e-11
-1.22559e-26
4.61546e-05
3.90653e-05
9.56252e-05
0.000112549
7.95529e-05
4.19031e-07
4.02402e-07
1.40064e-06
9.34788e-08
-1.69822e-13
1.02949e-05
3.91292e-05
1.4986e-05
4.9279e-06
6.3103e-06
9.08535e-05
0.00012663
0.000207989
0.00186693
0.00191657
0.000535702
0.00015888
2.20201e-08
0.000209194
5.46318e-05
0.000195497
0.00037002
0.000231942
0.00143928
0.000622254
-1.06652e-24
-6.23522e-13
3.38868e-23
6.3057e-05
9.32991e-05
0.000116863
0.000153874
0.000150597
0.000166303
0.000168882
0.000298474
0.00133618
0.0123565
0.0198484
0.0110523
0.000213906
0.000225071
0.000106216
7.58849e-05
0.0017692
0.00427546
0.004278
0.00414564
0.00125458
0.00027483
0.00027889
0.000324793
0.000108178
8.95227e-05
0.000410414
0.00212689
0.00678483
0.00830678
0.0050246
0.0033021
0.0149124
0.0198482
0.0198484
0.0198481
0.000181241
6.13362e-05
6.66627e-05
0.00016476
0.00177148
0.00428575
0.00458655
0.00458377
0.00423065
0.00352068
0.0020669
0.000257119
6.44304e-05
0.00016812
0.00532396
0.0100368
0.0100406
0.0100368
0.00992064
0.00945648
0.0133285
0.0196573
0.0198471
8.50815e-06
5.58136e-07
2.22406e-05
8.20782e-05
1.39739e-05
0.000267476
0.00143927
0.00243883
0.00361421
0.0031471
0.0018004
0.000370964
3.88416e-05
0.000235064
0.00330373
0.00421159
0.00500323
0.00531134
0.00251013
0.000641646
0.000132776
0.000419266
0.000949442
2.22105e-07
3.46005e-08
1.92485e-07
2.68417e-05
4.69986e-06
2.05951e-07
1.84649e-08
4.22104e-09
0.000145348
0.000372255
0.000200486
0.000158508
3.86799e-05
0.000268088
9.52888e-05
7.4701e-08
2.61018e-23
4.5052e-06
3.10922e-07
-6.46677e-22
7.7581e-07
6.61684e-07
4.46705e-07
6.93705e-08
3.80654e-08
3.01439e-08
3.77421e-07
3.39004e-07
5.0415e-07
5.58375e-07
3.6463e-07
2.2737e-07
6.06436e-07
8.31284e-07
1.1362e-06
2.24067e-05
6.68063e-05
5.78882e-06
7.73326e-09
-1.93759e-27
6.65258e-07
7.5644e-07
1.72783e-10
9.67776e-06
3.13982e-05
3.21767e-05
1.28592e-07
8.01673e-08
8.1982e-09
1.99154e-08
5.0891e-08
1.91495e-07
3.4829e-07
3.78908e-07
4.75454e-07
5.55495e-07
4.952e-07
4.6289e-07
7.5392e-07
3.81904e-07
1.3888e-07
8.28871e-07
5.40784e-06
5.96925e-06
1.14572e-06
7.27144e-06
3.18279e-05
3.18824e-05
2.21074e-05
1.32294e-07
1.06184e-07
7.55578e-09
7.20982e-09
1.25014e-08
7.12125e-08
1.58443e-07
2.64532e-07
3.28562e-07
4.97761e-07
5.49256e-07
4.03695e-07
6.17381e-09
6.09937e-09
6.17379e-09
4.29952e-06
7.34214e-06
3.37263e-06
9.46476e-06
1.95297e-05
1.70774e-05
2.06158e-06
9.96057e-07
1.15796e-07
7.17119e-08
9.30155e-09
7.20297e-09
7.20534e-09
2.37717e-08
8.20476e-08
1.28326e-07
1.59162e-07
1.75309e-07
3.72887e-07
2.39132e-07
1.08101e-08
6.04279e-09
6.1178e-09
2.0397e-06
5.63126e-06
1.4156e-06
6.95826e-06
3.87517e-06
1.19627e-06
1.20419e-06
8.89524e-07
5.59729e-08
3.2199e-08
1.02348e-08
7.19998e-09
8.53821e-09
1.564e-08
3.22761e-08
4.55413e-08
5.2939e-08
5.02787e-08
4.22528e-08
5.62342e-08
1.29131e-08
5.92845e-09
2.97692e-08
5.15138e-07
4.87343e-07
2.75006e-07
2.46168e-07
2.57578e-09
1.96003e-06
9.18147e-06
1.1745e-06
2.13698e-08
1.07561e-08
6.5337e-09
6.42364e-09
6.94356e-09
8.13819e-09
9.58998e-09
1.15192e-08
1.23506e-08
1.03815e-08
6.64043e-09
7.02092e-09
6.93135e-09
5.58596e-09
2.38778e-08
1.16388e-07
7.9443e-08
5.95446e-09
9.46091e-09
2.62507e-09
7.93615e-06
1.32296e-05
1.36514e-06
1.17159e-08
5.06061e-09
4.13415e-09
4.72842e-09
4.72792e-09
4.20691e-09
3.75427e-09
3.19911e-09
2.83641e-09
1.92256e-09
1.05901e-09
1.0884e-09
2.17415e-09
3.27228e-09
5.0925e-09
1.23285e-08
8.35926e-09
3.32736e-09
2.84701e-09
2.03685e-09
5.71723e-06
1.32616e-05
7.98754e-06
1.20075e-08
3.41807e-09
2.69452e-09
3.14538e-09
2.98973e-09
2.45247e-09
1.89082e-09
1.43906e-09
1.17772e-09
9.33679e-10
9.99332e-10
1.25976e-09
1.70082e-09
2.30875e-09
2.66177e-09
3.30153e-09
3.11437e-09
2.45596e-09
2.17547e-09
1.93287e-09
1.89426e-09
6.38085e-06
1.21781e-05
1.19865e-08
2.39231e-09
1.72564e-09
1.95782e-09
1.74224e-09
1.37476e-09
1.05823e-09
7.92556e-10
6.3315e-10
5.83589e-10
6.52573e-10
8.15754e-10
1.07364e-09
1.46909e-09
1.89568e-09
2.29898e-09
2.27109e-09
1.86297e-09
1.91283e-09
2.30432e-09
1.02483e-08
4.14329e-07
2.85949e-07
1.16465e-08
1.65725e-09
1.07099e-09
1.15978e-09
9.90138e-10
7.76843e-10
5.89589e-10
4.44154e-10
3.50252e-10
3.1827e-10
3.41753e-10
4.13171e-10
5.34034e-10
7.29328e-10
9.78469e-10
1.21423e-09
1.28769e-09
1.19234e-09
1.09709e-09
3.55446e-09
2.66995e-08
2.7235e-08
1.74509e-07
1.12365e-08
1.10871e-09
7.03398e-10
7.17023e-10
6.16838e-10
5.11873e-10
3.96864e-10
2.82684e-10
2.12981e-10
1.75474e-10
1.67104e-10
1.85087e-10
2.30114e-10
3.07853e-10
4.13769e-10
5.29091e-10
6.09256e-10
6.75417e-10
7.69832e-10
2.6978e-09
1.5567e-08
4.37013e-08
6.12297e-08
1.07791e-08
7.41092e-10
5.11842e-10
5.65409e-10
6.07745e-10
5.88482e-10
4.47259e-10
2.65277e-10
1.80537e-10
1.26101e-10
9.55356e-11
8.64757e-11
9.4386e-11
1.18633e-10
1.57922e-10
2.08726e-10
2.66228e-10
3.46514e-10
5.13077e-10
1.43251e-09
4.81519e-09
2.09665e-08
3.46172e-08
1.04057e-08
5.38066e-10
4.7579e-10
6.76083e-10
1.0023e-09
1.07792e-09
7.10378e-10
3.15762e-10
2.01261e-10
1.25969e-10
7.92361e-11
5.38023e-11
4.4649e-11
4.6409e-11
5.81429e-11
7.95765e-11
1.13724e-10
1.70667e-10
2.62557e-10
5.58851e-10
1.04006e-09
3.10192e-09
5.15774e-09
1.00852e-08
4.63867e-10
5.18795e-10
1.20986e-09
1.65534e-09
1.68208e-09
9.60188e-10
3.57777e-10
2.39868e-10
1.47419e-10
8.43792e-11
4.84716e-11
3.04062e-11
2.28956e-11
2.28814e-11
3.03383e-11
4.66556e-11
7.72855e-11
1.25184e-10
2.1653e-10
3.51673e-10
4.49719e-10
1.35122e-09
9.83062e-09
4.58477e-10
8.30189e-10
1.65413e-09
2.54941e-09
3.29348e-09
1.14448e-09
3.83252e-10
2.77609e-10
1.69248e-10
9.37876e-11
5.10496e-11
2.88815e-11
1.67731e-11
1.17308e-11
1.22398e-11
1.78733e-11
3.03751e-11
5.11757e-11
8.96092e-11
1.44625e-10
3.13066e-10
6.85454e-10
9.62361e-09
5.59955e-10
1.24261e-09
2.46524e-09
5.19745e-09
9.38672e-09
9.07116e-10
4.01766e-10
3.22523e-10
1.87282e-10
9.80014e-11
5.45919e-11
2.98883e-11
1.62431e-11
8.88771e-12
6.10325e-12
6.81639e-12
1.06866e-11
1.78999e-11
3.12574e-11
5.50116e-11
9.99244e-11
2.28946e-10
9.46165e-09
8.80133e-10
2.30788e-09
4.75722e-09
1.96392e-08
2.01673e-08
4.8452e-10
4.26183e-10
3.69336e-10
1.89196e-10
9.48605e-11
5.26758e-11
3.00282e-11
1.67271e-11
8.65774e-12
4.42646e-12
3.04009e-12
3.67781e-12
5.67622e-12
9.53271e-12
1.57155e-11
3.05754e-11
5.5492e-11
9.4898e-09
2.82762e-09
1.16918e-08
4.14242e-08
1.19665e-07
1.38342e-08
4.41474e-10
4.77931e-10
3.63313e-10
1.69718e-10
8.2963e-11
4.70138e-11
2.80769e-11
1.62786e-11
8.66526e-12
4.18906e-12
2.04872e-12
1.35264e-12
1.80375e-12
2.8359e-12
4.53294e-12
7.2959e-12
1.38325e-11
9.90885e-09
1.1314e-08
8.12552e-08
4.13096e-07
3.06797e-07
8.45547e-10
4.40788e-10
5.34933e-10
3.29498e-10
1.37578e-10
6.51328e-11
3.80197e-11
2.42564e-11
1.48429e-11
8.28301e-12
4.09875e-12
1.86664e-12
6.25821e-13
6.23678e-13
8.76399e-13
1.29498e-12
2.15187e-12
3.38302e-12
1.14798e-08
3.16706e-08
1.96951e-07
6.06227e-07
3.02721e-07
4.48174e-10
5.24841e-10
5.65506e-10
2.78368e-10
1.02054e-10
4.64026e-11
2.79191e-11
1.91082e-11
1.25069e-11
7.44292e-12
3.83349e-12
1.71576e-12
5.86626e-13
2.35214e-13
2.85543e-13
4.13341e-13
6.09267e-13
9.45552e-13
1.38728e-08
5.22217e-08
2.64793e-07
6.06847e-07
1.14276e-07
4.45148e-10
7.64805e-10
5.30999e-10
2.03908e-10
7.06005e-11
3.08228e-11
1.88324e-11
1.35355e-11
9.57106e-12
6.14446e-12
3.40319e-12
1.63227e-12
5.6666e-13
1.17915e-13
9.70744e-14
1.27558e-13
1.89088e-13
2.56991e-13
1.76307e-08
9.33969e-08
5.38577e-07
4.4813e-07
5.26914e-09
5.9672e-10
1.00084e-09
4.31655e-10
1.30764e-10
4.79466e-11
1.95674e-11
1.20515e-11
8.87033e-12
6.51753e-12
4.52933e-12
2.78919e-12
1.45147e-12
5.57883e-13
9.08297e-14
3.54739e-14
3.73885e-14
5.11689e-14
6.90204e-14
2.00493e-08
1.40774e-07
6.28714e-07
2.18333e-07
5.94556e-10
9.7344e-10
1.34223e-09
4.27377e-10
1.1469e-10
3.27355e-11
1.18022e-11
7.0111e-12
5.20886e-12
3.93664e-12
2.96451e-12
2.02025e-12
1.16576e-12
5.33197e-13
9.48658e-14
1.59964e-14
1.12098e-14
1.51627e-14
1.77859e-14
2.33146e-08
1.81317e-07
6.28732e-07
2.2672e-07
5.32259e-10
1.57421e-09
1.83072e-09
4.80912e-10
1.13866e-10
2.37649e-11
6.93375e-12
4.02192e-12
2.8184e-12
2.13273e-12
1.67351e-12
1.26471e-12
8.31194e-13
4.32368e-13
1.14409e-13
1.17967e-14
3.6635e-15
3.99032e-15
4.7949e-15
2.83188e-08
2.5564e-07
6.28714e-07
1.86192e-07
5.61408e-10
2.78964e-09
2.29699e-09
5.55193e-10
1.1797e-10
1.91662e-11
4.01481e-12
2.15378e-12
1.46932e-12
1.0344e-12
7.98655e-13
6.6251e-13
5.06011e-13
3.15921e-13
1.02965e-13
1.22974e-14
1.69568e-15
1.22256e-15
1.36695e-15
2.9811e-08
3.47063e-07
6.28732e-07
7.36174e-08
2.0266e-09
7.47122e-09
2.64109e-09
5.85982e-10
1.16644e-10
1.57556e-11
2.22749e-12
1.06804e-12
7.19596e-13
4.61635e-13
3.30838e-13
2.81462e-13
2.48052e-13
1.90194e-13
8.17507e-14
1.35515e-14
1.28843e-15
3.57755e-16
3.75708e-16
3.08506e-08
3.21608e-07
5.25292e-07
5.318e-09
4.57696e-09
1.08772e-08
2.80134e-09
5.40039e-10
9.73301e-11
1.19502e-11
1.16992e-12
5.03122e-13
3.29204e-13
1.92875e-13
1.19706e-13
9.50387e-14
9.23401e-14
8.64228e-14
5.15066e-14
1.25844e-14
1.31895e-15
1.35664e-16
9.37513e-17
2.74782e-08
2.14914e-07
2.49713e-07
4.04336e-09
1.16382e-08
1.10902e-08
2.56655e-09
4.37349e-10
6.51136e-11
7.14481e-12
5.44727e-13
1.98247e-13
1.3328e-13
7.41801e-14
3.90348e-14
2.5847e-14
2.5216e-14
2.86344e-14
2.50733e-14
9.37938e-15
1.32853e-15
8.17595e-17
2.29453e-17
2.28915e-08
1.79924e-07
2.70532e-07
4.04569e-09
1.39255e-08
7.193e-09
1.46693e-09
2.79452e-10
2.95747e-11
2.77827e-12
1.78018e-13
5.96343e-14
4.2901e-14
2.43105e-14
1.14793e-14
5.85117e-15
4.9087e-15
6.49844e-15
8.11449e-15
5.38324e-15
9.94073e-16
7.48156e-17
7.08541e-18
2.20881e-08
1.19562e-07
2.40274e-07
3.93803e-09
1.33591e-08
3.18209e-09
6.16917e-10
1.15848e-10
9.94749e-12
6.52708e-13
3.32605e-14
1.2192e-14
9.79506e-15
5.93955e-15
2.74623e-15
1.11902e-15
7.12261e-16
1.03544e-15
1.81114e-15
2.11735e-15
6.18936e-16
6.60666e-17
4.73662e-18
2.42391e-08
3.68323e-08
2.88998e-08
1.02305e-08
3.40196e-09
4.62085e-10
1.04555e-10
1.70821e-11
1.07097e-12
4.27772e-14
1.86739e-15
1.28513e-15
1.20988e-15
8.26415e-16
4.01513e-16
1.50496e-16
7.16352e-17
1.17537e-16
3.07517e-16
5.81825e-16
3.45345e-16
5.08427e-17
3.42144e-18
0.979606
0.987458
0.993053
0.99335
0.983568
0.993768
0.993853
0.993859
0.989192
0.982289
0.981939
0.977855
0.50831
0.316141
0.283452
0.267455
-2.31672e-23
-1.07279e-22
-8.8102e-07
-5.86332e-07
1.98638e-05
8.63056e-05
0.000343856
0.000498038
0.00069493
0.0001674
0.000421019
0.000701394
0.0113056
0.000139825
0.00198734
0.0033651
0.0138771
3.64873e-06
8.376e-05
0.00161079
7.06656e-07
4.89789e-06
2.06252e-05
5.06171e-05
7.63983e-07
2.04244e-06
2.02517e-06
7.60179e-07
3.23407e-05
3.23608e-05
2.33639e-05
1.70314e-06
5.95199e-06
6.7018e-07
5.93385e-07
5.935e-07
1.06978e-06
9.65468e-07
5.9515e-07
5.93385e-07
8.91302e-07
9.18141e-07
6.05378e-07
1.15213e-06
2.31228e-07
2.31055e-07
1.46478e-06
7.66128e-06
2.3147e-07
3.6621e-07
5.96725e-06
9.96511e-06
1.35002e-06
6.7196e-06
1.12284e-05
8.51333e-06
1.51981e-05
1.5204e-05
1.52034e-05
9.12161e-06
3.15491e-07
1.19962e-05
1.51826e-05
1.04124e-05
1.40491e-07
6.152e-08
4.02519e-08
3.93607e-08
5.91718e-08
5.5967e-08
5.69499e-08
4.30303e-08
2.77905e-08
1.68023e-08
2.21335e-09
2.56879e-08
5.84433e-09
5.23049e-09
2.23065e-09
2.0464e-09
1.78877e-09
2.03401e-09
2.02207e-09
2.0349e-09
8.37567e-10
1.37051e-09
1.97485e-09
2.49678e-09
3.08479e-10
3.81799e-10
4.73617e-10
5.2219e-10
7.95775e-11
1.00515e-10
1.14529e-10
1.24243e-10
1.84479e-11
2.12753e-11
2.55122e-11
2.73662e-11
4.32488e-12
5.37717e-12
5.77e-12
6.44302e-12
1.19544e-12
1.30097e-12
1.48339e-12
1.6124e-12
2.97616e-13
3.21513e-13
3.35915e-13
3.57381e-13
7.44953e-14
7.20992e-14
7.60322e-14
7.80272e-14
1.92462e-14
1.77357e-14
1.67167e-14
1.71595e-14
4.65837e-15
4.18121e-15
4.08201e-15
3.96066e-15
1.2633e-15
1.10839e-15
1.06952e-15
1.06564e-15
3.4532e-16
2.98047e-16
2.85072e-16
3.10626e-16
8.86136e-17
7.19725e-17
7.05326e-17
7.34733e-17
1.83295e-17
1.63508e-17
1.50035e-17
1.59751e-17
3.83081e-18
3.07075e-18
2.80699e-18
2.65803e-18
6.82438e-19
5.32421e-19
4.75691e-19
4.51308e-19
1.30252e-19
7.38093e-20
6.87261e-20
5.39726e-20
0.993327
0.992217
0.983529
0.973057
0.984141
0.991549
0.991554
0.972553
0.843601
0.47794
0.782818
0.945659
0.945654
0.939771
0.936655
0.914621
0.950917
0.952724
0.827597
0.992454
0.957436
0.903633
0.922039
0.984027
0.921243
0.613864
0.31709
0.16417
0.311715
0.909484
0.941207
0.944991
0.944748
0.946063
0.946106
0.946073
0.930414
0.859788
0.906411
0.792637
0.756486
0.74664
0.646869
0.17478
1.1244e-11
9.74598e-12
6.04448e-05
0.128717
0.305404
0.360538
0.542611
0.61558
0.524699
0.53248
0.58229
0.83071
0.908011
0.249517
0.169781
0.108147
0.0657252
0.0200433
1.67298e-05
5.80777e-05
7.04472e-09
-7.39998e-24
3.45544e-25
7.27117e-24
9.31101e-13
0.000600404
0.000167555
-7.97732e-23
6.4386e-32
0.0304758
0.173751
0.455837
8.62738e-17
8.52674e-17
3.23353e-12
1.73522e-05
2.00423e-05
4.80429e-05
0.000452096
2.23203e-07
-2.62778e-22
1.41538e-05
2.13451e-05
8.10012e-06
7.30501e-06
7.69383e-06
8.78935e-07
-4.20985e-11
-1.19647e-06
1.40541e-05
0.000392611
0.000689693
0.00743791
0.0140748
0.0124921
0.00186254
0.000280563
0.000467553
0.000734703
0.000553183
0.000558801
0.000456294
0.000280667
0.000165435
0.000279321
0.000430172
0.000470315
0.000572661
0.000774506
0.00125404
0.00068105
0.00108682
0.0231932
0.0365822
0.0224562
0.00493387
0.00329726
0.0037879
0.00611284
0.00990841
0.00751347
0.00187912
0.000156952
0.000215335
0.00142163
0.0025346
0.00253757
0.00253719
0.00253757
0.00332991
0.00185027
0.0211871
0.0365672
0.0365822
0.0307145
0.0181612
0.0168931
0.0191816
0.0192103
0.0191814
0.00626002
0.000179765
8.69546e-05
0.00081976
0.00244656
0.00253725
0.00235483
0.00239322
0.00271614
0.00384123
0.0151215
0.0253058
0.0249252
0.0165195
0.0122915
0.00822065
0.00771236
0.00967909
0.00767888
0.00370062
0.000637785
2.93885e-05
1.14902e-07
0.000182185
0.000439302
0.000337445
0.000310756
0.000169245
0.000518006
1.41269e-10
8.05824e-24
2.959e-24
-7.37059e-11
-7.46898e-26
9.15885e-26
0
2.4564e-24
1.61721e-16
1.24773e-11
7.2082e-05
1.62523e-06
1.10805e-07
1.11113e-07
1.07395e-07
1.08262e-07
8.41727e-08
8.28094e-07
2.0232e-06
2.67691e-06
1.66365e-06
5.53969e-07
8.4534e-09
5.84056e-08
4.56414e-08
-3.94923e-24
8.44777e-07
9.1557e-06
1.27614e-05
5.3268e-05
1.34581e-06
1.29426e-06
1.5212e-07
2.62419e-07
1.23676e-06
3.65544e-06
3.12623e-06
2.04601e-05
2.12094e-05
1.00983e-05
3.66136e-06
8.23238e-09
4.15064e-08
8.35301e-08
8.35676e-07
3.29549e-06
4.76958e-06
3.29837e-05
7.56447e-05
4.27021e-05
1.34585e-06
3.25095e-06
6.20031e-07
1.77324e-06
1.46833e-05
5.92567e-07
1.99815e-06
4.72107e-06
3.98747e-06
6.39291e-07
2.18095e-08
2.21707e-08
3.10757e-07
5.6827e-06
7.81816e-06
3.22302e-06
1.83129e-06
4.42981e-06
1.2093e-05
2.08602e-06
1.14413e-06
4.22782e-07
7.72407e-07
1.84319e-05
5.95238e-07
6.11402e-07
6.29668e-07
6.92343e-07
3.31458e-07
2.39488e-08
7.02327e-07
2.49716e-06
7.66448e-06
7.83918e-06
7.79031e-06
2.54026e-06
3.18225e-06
7.25038e-06
7.01739e-06
2.5939e-06
1.67185e-07
2.44123e-07
1.84097e-05
6.32294e-07
8.69545e-07
8.52856e-07
1.26543e-06
1.60129e-06
4.24455e-07
2.7508e-06
3.22785e-06
2.29142e-06
3.60651e-06
4.29664e-06
4.73512e-06
4.498e-06
5.17069e-07
5.35094e-07
2.01054e-07
1.61727e-07
9.82716e-06
1.86248e-05
1.79956e-05
2.14855e-05
6.66742e-06
8.73555e-06
1.12932e-05
3.97052e-06
3.63887e-06
8.11537e-07
5.81034e-08
6.38677e-08
5.71769e-08
3.4127e-06
1.08358e-05
6.69167e-06
2.00917e-07
1.94116e-07
3.77648e-06
1.8633e-05
1.86324e-05
3.39263e-05
4.2659e-05
4.25685e-05
3.38459e-05
2.67984e-05
2.09935e-05
8.16085e-06
7.91061e-08
5.81007e-08
5.77596e-08
5.74959e-08
8.20602e-06
2.12651e-05
2.76961e-05
9.18258e-06
7.33045e-06
1.62527e-05
1.68807e-05
4.46387e-06
8.07564e-06
4.05563e-05
4.28779e-05
4.28778e-05
4.28779e-05
3.89198e-05
1.68831e-05
2.30128e-06
1.345e-06
1.10718e-07
8.99906e-08
6.20792e-06
3.62451e-05
4.02258e-05
4.02252e-05
3.617e-05
1.20027e-05
3.08495e-06
8.85387e-07
9.16201e-07
4.17057e-06
3.90942e-05
4.28779e-05
4.2876e-05
1.45322e-05
9.08702e-06
7.02024e-06
3.55038e-06
1.98573e-06
1.58997e-06
5.23653e-06
5.78451e-06
9.99893e-06
9.07201e-06
2.812e-06
9.19812e-07
1.03831e-07
3.84141e-07
1.75729e-07
5.52901e-08
1.89194e-06
3.20589e-05
1.55309e-05
4.94359e-07
4.81639e-07
4.85599e-06
5.89206e-06
4.33036e-06
2.16147e-06
3.03183e-06
2.63168e-06
2.45382e-06
1.18885e-07
1.191e-07
1.28176e-07
9.71413e-08
3.22405e-07
1.50167e-07
5.62393e-08
1.09511e-09
1.09137e-09
1.08385e-09
5.4303e-07
4.70083e-07
9.88266e-10
1.85589e-07
4.47051e-07
1.96884e-07
7.75591e-07
2.30411e-06
1.1588e-06
1.56041e-07
2.86104e-07
3.35207e-07
1.33103e-07
7.83347e-08
2.32091e-08
2.18908e-08
1.17153e-08
2.45975e-09
1.8273e-09
1.93667e-09
9.71499e-10
9.88763e-10
5.39014e-10
5.39781e-10
5.85065e-10
6.83735e-10
6.22846e-10
7.33956e-10
1.70696e-07
3.67088e-07
4.29504e-07
2.59052e-07
7.83347e-08
6.38332e-08
6.43802e-08
3.59835e-08
1.1362e-08
7.95863e-09
5.73159e-09
3.89267e-09
2.68081e-09
1.85792e-09
1.33499e-09
1.28568e-09
4.38508e-09
2.43701e-09
2.40497e-09
2.39555e-09
1.14031e-07
4.2952e-07
2.89317e-07
7.83347e-08
3.80253e-08
5.51275e-08
3.08924e-08
1.22331e-08
8.00152e-09
6.28735e-09
4.55902e-09
3.21462e-09
2.32076e-09
2.16325e-09
2.32041e-09
3.0892e-09
3.67928e-09
3.50177e-09
2.41477e-09
2.37287e-09
2.54075e-07
2.7531e-07
8.4555e-08
1.56359e-08
1.43663e-08
6.32514e-09
3.42255e-09
3.44043e-09
2.8595e-09
2.1137e-09
1.70063e-09
1.65348e-09
2.06983e-09
2.91282e-09
4.07796e-09
5.57421e-09
7.03892e-09
5.74627e-09
2.36858e-09
5.37374e-08
1.98047e-07
9.06686e-08
1.64094e-09
1.15801e-09
1.43624e-09
1.39346e-09
1.18952e-09
9.74396e-10
8.28656e-10
8.56987e-10
1.10034e-09
1.60528e-09
2.55926e-09
4.24589e-09
6.86437e-09
9.30165e-09
9.16354e-09
4.12314e-09
1.09315e-08
1.39022e-07
1.201e-07
4.82291e-10
4.77344e-10
4.51059e-10
3.92676e-10
3.26717e-10
3.1499e-10
3.64176e-10
4.96486e-10
7.84393e-10
1.28679e-09
2.13009e-09
3.65061e-09
6.13564e-09
8.88823e-09
7.65092e-09
9.9694e-09
3.36832e-08
1.93804e-07
1.95588e-07
1.29273e-10
1.24842e-10
1.14687e-10
1.05871e-10
1.10187e-10
1.3952e-10
1.92321e-10
3.1882e-10
5.95099e-10
1.16132e-09
2.08472e-09
3.4351e-09
5.35437e-09
6.81993e-09
5.74563e-09
2.5043e-08
1.21297e-07
2.02516e-07
2.02517e-07
2.7736e-11
2.85291e-11
3.00222e-11
3.43378e-11
3.98493e-11
3.72728e-11
5.39895e-11
1.21711e-10
3.48557e-10
9.80289e-10
2.27884e-09
4.27171e-09
5.64868e-09
5.58024e-09
5.57989e-09
5.8693e-08
1.58836e-07
1.64802e-07
2.02499e-07
7.02803e-12
7.5066e-12
8.03001e-12
6.97735e-12
5.30502e-12
6.5189e-12
1.4821e-11
4.97584e-11
1.90582e-10
6.22241e-10
2.42651e-09
5.57379e-09
8.61346e-09
7.8548e-09
5.71308e-09
5.31784e-08
1.58518e-07
9.98116e-08
2.02494e-07
1.65797e-12
1.84037e-12
1.86652e-12
1.02036e-12
1.00421e-12
1.92302e-12
6.06771e-12
2.30793e-11
9.28225e-11
2.65255e-10
2.34986e-09
7.40863e-09
1.29911e-08
1.23964e-08
1.02586e-08
2.78859e-08
8.32795e-08
5.64235e-08
1.8089e-07
3.74218e-13
3.9525e-13
3.79486e-13
2.31685e-13
3.48563e-13
9.8848e-13
3.28202e-12
1.19406e-11
4.6201e-11
1.6713e-10
2.6595e-09
1.00805e-08
2.27836e-08
2.57654e-08
1.12452e-08
4.43426e-09
6.4748e-09
2.6951e-08
6.85471e-08
7.85314e-14
7.33456e-14
7.65139e-14
1.08048e-13
2.0798e-13
6.5487e-13
2.1521e-12
7.87237e-12
3.344e-11
1.71983e-10
3.00123e-09
1.31845e-08
3.05359e-08
4.12366e-08
1.0539e-08
4.29652e-09
4.29663e-09
2.04549e-08
8.83059e-08
1.67403e-14
1.70548e-14
2.38116e-14
5.52607e-14
1.66622e-13
5.13951e-13
1.67147e-12
6.26843e-12
2.98213e-11
1.79435e-10
2.31421e-09
1.17507e-08
3.18847e-08
4.61856e-08
3.35883e-08
4.29816e-09
4.29681e-09
2.29027e-08
1.15205e-07
3.9018e-15
5.13222e-15
1.09578e-14
3.44539e-14
1.21306e-13
4.41986e-13
1.48227e-12
5.15216e-12
2.02772e-11
8.93728e-11
4.24522e-10
3.5408e-09
2.16923e-08
4.42055e-08
4.8313e-08
9.02398e-09
4.30289e-09
1.80686e-08
1.15235e-07
1.22878e-15
1.9728e-15
5.64483e-15
2.07799e-14
8.27449e-14
3.10725e-13
1.10575e-12
3.47534e-12
1.16997e-11
4.22684e-11
1.76701e-10
1.04849e-09
5.61317e-09
2.75161e-08
4.83094e-08
4.52379e-08
1.12353e-08
1.63519e-08
7.27686e-08
3.33929e-16
6.83327e-16
2.36371e-15
9.89649e-15
4.23959e-14
1.78264e-13
6.73349e-13
2.23284e-12
8.14662e-12
3.58597e-11
1.9229e-10
6.46482e-10
1.29799e-09
1.09122e-08
3.54476e-08
4.81923e-08
4.06303e-08
4.34374e-08
7.90559e-08
9.10562e-17
1.89139e-16
7.01576e-16
3.28436e-15
1.63558e-14
7.80338e-14
3.40214e-13
1.23252e-12
4.23767e-12
1.65866e-11
7.69566e-11
4.42435e-10
1.21231e-09
1.82866e-09
1.08573e-08
3.90351e-08
4.55263e-08
1.36325e-07
1.27083e-07
1.68559e-17
3.43869e-17
1.27497e-16
6.75938e-16
3.98751e-15
2.30168e-14
1.15196e-13
5.19082e-13
1.92281e-12
6.51744e-12
2.57767e-11
1.31889e-10
7.36451e-10
1.62222e-09
2.60299e-09
7.4509e-09
4.51662e-08
1.27435e-07
3.68739e-07
2.86677e-18
3.74844e-18
1.20004e-17
6.74186e-17
5.04615e-16
4.11148e-15
2.78567e-14
1.5581e-13
7.14751e-13
2.70155e-12
9.55464e-12
3.61437e-11
1.80715e-10
1.03608e-09
2.17909e-09
1.20127e-09
2.20104e-08
9.74549e-08
3.67876e-07
3.71389e-19
3.57311e-19
7.78555e-19
3.90431e-18
3.30698e-17
3.42876e-16
3.39062e-15
2.69635e-14
1.66957e-13
8.15449e-13
3.17493e-12
1.03642e-11
3.67295e-11
1.9344e-10
8.7148e-10
1.19426e-09
2.0334e-09
6.48695e-08
3.58899e-07
3.91622e-20
2.83405e-20
3.21793e-20
1.01801e-19
7.96243e-19
9.54082e-18
1.33261e-16
1.54444e-15
1.31486e-14
8.70396e-14
4.28445e-13
1.49965e-12
4.35745e-12
1.13774e-11
3.48976e-11
4.22174e-10
4.25575e-10
7.52046e-09
2.61565e-07
)
;

boundaryField
{
    leftWall
    {
        type            zeroGradient;
    }
    rightWall
    {
        type            zeroGradient;
    }
    lowerWall
    {
        type            zeroGradient;
    }
    atmosphere
    {
        type            inletOutlet;
        inletValue      uniform 0;
        value           nonuniform List<scalar> 
46
(
2.42391e-08
3.68323e-08
2.88998e-08
1.02305e-08
3.40196e-09
4.62085e-10
1.04555e-10
1.70821e-11
1.07097e-12
4.27772e-14
1.86739e-15
1.28513e-15
1.20988e-15
8.26415e-16
4.01513e-16
1.50496e-16
7.16352e-17
1.17537e-16
3.07517e-16
5.81825e-16
3.45345e-16
5.08427e-17
0
0
0
0
0
0
0
0
0
0
0
0
0
0
0
0
0
0
0
0
0
4.25574e-10
7.52046e-09
2.61565e-07
)
;
    }
    defaultFaces
    {
        type            empty;
    }
}


// ************************************************************************* //
