/*--------------------------------*- C++ -*----------------------------------*\
| =========                 |                                                 |
| \\      /  F ield         | OpenFOAM: The Open Source CFD Toolbox           |
|  \\    /   O peration     | Version:  2312                                  |
|   \\  /    A nd           | Website:  www.openfoam.com                      |
|    \\/     M anipulation  |                                                 |
\*---------------------------------------------------------------------------*/
FoamFile
{
    version     2.0;
    format      ascii;
    arch        "LSB;label=32;scalar=64";
    class       volScalarField;
    location    "5.85";
    object      alphas;
}
// * * * * * * * * * * * * * * * * * * * * * * * * * * * * * * * * * * * * * //

dimensions      [0 0 0 0 0 0 0];

internalField   nonuniform List<scalar> 
2268
(
2
2
2
2
2
2
2
2
2
2
2
2
2
2
2
2
2
2
2
2
1.99997
1.99996
1.99996
2
2
2
2
2
2
2
2
2
2
2
2
2
2
2
2
2
2
2
2
1.99999
1.99996
1.99998
2
2
2
2
2
2
2
2
2
2
2
2
2
2
2
2
2
2
2
2
2
2
2
2
2
2
2
2
2
2
2
2
2
2
2
2
2
2
2
2
2
2
2
2
2
2
1.93415
1.93882
1.94663
1.95651
1.96674
1.97667
1.98793
2.00018
2.00012
1.99996
1.99992
1.99992
1.99988
1.99991
1.99995
1.99999
2.00001
2
2
2
2
2
2
0.616311
0.633567
0.663597
0.70295
0.751327
0.810939
0.881761
0.969301
1.09735
1.24925
1.41743
1.56829
1.7194
1.85624
1.95964
1.99967
1.99719
1.99521
1.98979
1.99407
1.99618
1.99768
2.0013
0.00364134
0.00254469
0.00250942
0.00373859
0.00592979
0.00571938
0.00545762
0.0057756
0.0117494
0.0282011
0.0708419
0.165793
0.298828
0.479905
0.71714
1.00184
1.25759
1.5294
1.73207
1.82853
1.86222
1.88865
1.91872
0.00162157
0.00161965
0.00157767
0.00157189
0.00221045
0.00132047
0.000832395
0.000751209
0.000741236
0.000723956
0.000806238
0.000472057
0.00028142
0.000307018
0.000374664
0.0351879
0.198168
0.316963
0.433784
0.553403
0.65421
0.73092
0.799065
1.96068
1.96654
1.97508
1.97375
1.97073
1.96422
1.96303
1.96289
1.96243
1.96149
1.96076
1.96206
1.9675
1.96791
1.96786
1.96822
1.97091
1.97177
1.97145
1.97072
1.97267
1.97372
1.97092
1.9599
1.95903
1.95753
1.95532
1.94898
1.94451
1.94527
1.94454
1.942
1.94157
1.94198
1.93468
1.91786
1.90785
1.89945
1.8676
1.8557
1.83118
1.76784
1.66595
1.58168
1.50943
1.46673
1.43773
1.41681
1.41134
1.45502
1.44878
1.42998
1.4522
1.49975
1.4863
1.44362
1.44223
1.77422
1.50221
1.02366
0.643912
0.478517
0.376008
0.258919
0.208309
0.155493
0.0900965
0.0672242
0.132533
0.335054
0.398591
0.455834
0.699547
0.656816
0.356171
0.576953
0.78558
0.358022
0.11302
0.0488119
0.0629604
0.140106
0.114853
0.0264905
0.0210375
0.020996
0.0819663
0.0356281
0.02932
0.186208
0.245483
0.458675
0.255923
0.0984804
0.255312
0.285745
0.026102
0.0202091
0.02123
0.0246172
0.0620587
0.0602355
0.0211711
0.019979
0.0385701
0.322408
0.0993419
0.0269657
0.0280733
0.14534
0.489221
0.365174
0.0973025
0.0958746
0.16666
0.0186184
0.0234349
0.0234856
0.0208014
0.0222369
0.0240165
0.0193667
0.0201165
0.215739
0.432292
0.121832
0.0213789
0.0212247
0.186817
0.496335
0.162972
0.0980252
0.112812
0.0142998
0.0182139
0.0211365
0.0216184
0.0236926
0.0179936
0.0189725
0.0162078
0.0200507
0.351978
0.387631
0.1206
0.0734025
0.0797956
0.209651
0.478748
0.107501
0.0980253
0.226597
0.00992178
0.00178276
0.00157569
0.00236455
0.00817759
0.0185416
0.00552395
0.00064393
0.000643834
0.000643765
0.000639044
0.000624852
0.000540353
0.000311394
0.000336367
0.00362139
0.00594884
0.00526524
0.00609633
0.0100341
0.0124515
0.0119912
0.0190464
0.117275
0.11437
0.135384
0.190562
0.219608
0.198696
0.194259
0.177512
0.176981
0.179687
0.127232
0.0330698
0.0159275
0.0162969
0.0314839
0.0281975
0.0295142
0.02819
0.0230833
0.0320786
0.0345676
0.0212993
0.0167505
0.809367
0.83428
0.841739
0.850097
0.867163
0.892082
0.873135
0.885837
0.749949
0.53832
0.444225
0.417845
0.374043
0.371399
0.335756
0.327563
0.209596
0.183579
0.239226
0.250252
0.182868
0.062669
0.0161373
1.01717
1.00339
1.01125
1.05346
1.04608
1.00462
1.00262
1.04247
1.16328
1.12226
1.04845
0.996637
1.01298
1.02574
1.00303
0.911636
0.889138
0.875472
0.895069
0.943515
0.914737
0.660844
0.464221
1.00051
1.00053
1.00063
1.00412
1.00577
1.0006
1.02189
1.14313
1.16528
1.12486
1.00111
1.00059
1.0141
1.03427
1.01086
1.00022
1.00021
1.00072
1.00127
1.00743
1.04756
1.10126
1.07731
1.00041
1.00041
1.0003
1.00028
1.00038
1.00062
1.02088
1.11961
1.13406
1.01856
1.00028
1.00019
1.00029
1.00033
1.00032
1.00002
0.999925
0.999813
0.998174
0.998979
1.00697
1.01778
1.01571
1.00507
1.00034
1.00001
0.999795
0.999919
0.99873
1.00107
1.00783
1.00926
1.00027
1.00008
0.999999
0.999961
0.999891
0.999895
0.999848
0.99984
0.99971
0.998672
0.987799
0.981497
0.990307
1.0009
2.11081
2.02509
1.82231
1.53593
1.31493
1.16531
1.05182
0.999142
0.999885
0.999841
0.999828
1.00007
0.999999
0.999597
0.997896
0.993386
1.06687
1.14376
1.20707
1.26324
1.34814
1.40617
1.33361
2.99758
2.99317
2.97658
2.91396
2.8012
2.62566
2.3932
2.0359
1.71135
1.42887
1.26072
1.21087
1.26142
1.39401
1.67868
2.07137
2.34601
2.49873
2.59199
2.66888
2.72846
2.76551
2.78617
2.99997
2.99999
2.99989
2.99974
2.99996
2.99917
2.99551
2.99082
2.95652
2.85159
2.72084
2.64755
2.68018
2.78564
2.92269
2.9846
2.98479
2.98406
2.99247
2.99806
2.99957
2.99874
2.99714
3
3
3
2.99992
2.99999
3
3
3
2.99955
2.99886
2.99932
2.99935
2.99977
2.99918
2.99971
2.99998
2.99999
2.99999
3
3
2.99999
2.99999
2.99999
3
3
3
3
3
3
3
3
3
3
3
3
2.99993
2.99979
2.99997
2.99997
2.99997
2.99996
2.99998
2.99999
2.99996
2.99987
2.99987
3
3
3
3
3
3
3
3
3
3
3
3
2.99999
2.99996
2.99996
2.99995
2.99994
2.99994
2.99995
2.99995
2.99989
2.99989
2.99993
3
3
3
3
3
3
3
3
3
3
3
3
2.99999
2.99998
2.99998
2.99997
2.99996
2.99997
2.99995
2.99991
2.99993
2.99999
3
3
3
3
3
3
3
3
3
3
3
3
3
3
3
3
2.99999
2.99998
3
2.99996
2.99997
2.99999
3
3
3
3
3
3
3
3
3
3
3
3
3
3
3
3
3
3
3
3
2.99999
3
2.99999
2.99996
2.99999
3
3
3
3
3
3
3
3
3
3
3
3
3
3
3
3
3
3
3
3
2.99997
2.99993
2.99999
3
3
3
3
3
3
3
3
3
3
3
3
3
3
3
3
3
3
3
3
2.99998
2.99993
2.99993
3
3
3
3
3
3
3
3
3
3
3
3
3
3
3
3
3
3
3
3
3
2.99998
2.99988
3
3
3
3
3
3
3
3
3
3
3
3
3
3
3
3
3
3
3
3
3
3
3
3
3
3
3
3
3
3
3
3
3
3
3
3
3
3
3
3
3
3
3
3
3
3
3
3
3
3
3
3
3
3
3
3
3
3
3
3
3
3
3
3
3
3
3
3
3
3
3
3
3
3
3
3
3
3
3
3
3
3
3
3
3
3
3
3
3
3
3
3
3
3
3
3
3
3
3
3
3
3
3
3
3
3
3
3
3
3
3
3
3
3
3
3
3
3
3
3
3
3
3
3
3
3
3
3
3
3
3
3
3
3
3
3
3
3
3
3
3
3
3
3
3
3
3
3
3
3
3
3
3
3
3
3
3
3
3
3
3
3
3
3
3
3
3
3
3
3
3
3
3
3
3
3
3
3
3
3
3
3
3
3
3
3
3
3
3
3
3
3
3
3
3
3
3
3
3
3
3
3
3
3
3
3
3
3
3
3
3
3
3
3
3
3
3
3
3
3
3
3
3
3
3
3
3
3
3
3
3
3
3
3
3
3
3
3
3
3
3
3
3
3
3
3
3
3
3
3
3
3
3
3
3
3
3
3
3
3
3
3
3
3
3
3
3
3
3
3
3
3
3
3
3
3
3
3
3
3
3
3
3
3
3
3
3
3
3
3
3
3
3
3
3
3
3
3
3
3
3
3
3
3
3
3
3
3
3
3
3
3
3
3
3
3
3
3
3
3
3
3
3
3
3
3
3
3
3
3
3
3
3
3
3
3
3
3
3
3
3
3
3
3
3
3
3
3
3
3
3
3
3
3
3
3
3
3
3
3
3
3
3
3
3
3
3
3
3
3
3
3
3
3
3
3
3
3
3
3
3
3
3
3
3
3
3
3
3
3
3
3
3
3
3
3
3
3
3
3
3
3
3
3
3
3
3
3
3
3
3
3
3
3
3
3
3
3
3
3
3
3
3
3
3
3
3
3
3
3
3
3
3
3
3
3
3
3
3
3
3
3
3
3
3
3
3
3
3
3
3
3
3
3
3
3
3
3
3
3
3
3
3
3
3
3
3
3
3
3
3
3
3
3
3
3
3
3
3
3
3
3
3
3
3
3
3
3
3
3
3
3
3
3
3
3
3
3
3
3
3
3
3
3
3
3
3
3
3
3
3
3
3
3
3
3
3
3
3
3
3
3
3
3
3
3
3
3
3
0.0239826
0.0203569
0.0151007
0.0144432
0.0200404
0.0143081
0.0140699
0.0141931
0.0147938
0.020402
0.0219467
0.0380801
0.502215
0.694909
0.759836
0.977278
1.00157
1.00179
1.03022
1.08689
1.00089
1.00069
1
0.999595
0.999615
1.00024
0.99983
0.999395
1.26384
1.24755
1.22907
1.23231
2.79801
2.77667
2.73989
2.74174
2.99984
2.99976
2.99971
2.9997
2.99999
2.99998
2.99998
2.99999
2.99987
2.99987
2.9999
2.99996
2.99998
2.99999
2.99999
3
3
3
3
3
2.99999
3
3
3
2.99999
2.99996
2.99989
2.9999
2.99998
2.99986
2.99983
2.99982
2.99989
2.99983
2.99982
2.99982
2.99981
2.99981
2.99981
2.99983
3
2.99995
2.99992
2.99996
3
3
3
3
3
3
3
3
3
3
3
3
3
3
3
3
3
3
3
3
3
3
3
3
3
3
3
3
3
3
3
3
3
3
3
3
3
3
3
3
3
3
3
3
3
3
3
3
3
3
3
3
3
3
3
3
3
3
3
3
3
3
3
3
3
3
3
3
3
3
3
3
3
3
3
3
3
3
3
3
3
3
3
3
3
3
3
3
0.014724
0.0181696
0.0381448
0.0581571
0.0296324
0.0140678
0.0137617
0.0376744
0.240621
0.686532
0.224843
0.0665622
0.0677926
0.100642
0.147707
0.210741
0.103423
0.0998325
0.258551
0.0184077
0.106158
0.230548
0.18548
0.0283876
0.087226
0.411786
0.78132
1.01428
0.796089
0.0966572
0.083585
0.120593
0.121033
0.108805
0.0915003
0.11458
0.164726
0.23663
0.246669
0.521539
0.55476
0.552354
0.491446
0.883935
1.03507
1.12345
1.17828
1.0368
0.701037
0.643512
0.481876
0.433537
0.482542
0.488254
0.515427
0.265598
0.18008
1.06465
1.14441
1.20343
1.24864
1.28925
1.07837
1.00472
1.01839
1.07449
1.08178
1.02674
1.00513
1.00124
1.00149
1.00496
1.01227
1.02771
0.892916
0.597655
1.09653
1.07041
1.0524
1.12612
1.14509
1.02638
1.0014
1.00228
1.00202
1.00208
1.00228
1.00537
1.00418
1.00202
1.00164
1.00258
1.00352
1.0037
1.00284
0.999373
0.992625
0.985988
0.987571
0.998201
1.00197
1.0014
1.00039
1.00061
1.00059
1.00089
1.00159
1.00194
1.00156
1.00085
1.00072
1.00072
1.00158
1.00375
0.999409
0.999016
0.977196
0.963947
0.977806
0.995203
0.996809
0.998869
1.01521
1.05927
1.09942
1.10063
1.10001
1.14161
1.22572
1.34551
1.53625
1.63738
1.72276
1.25155
1.3022
1.38167
1.47894
1.53281
1.58349
1.73154
1.93105
2.14456
2.36044
2.4671
2.47983
2.49352
2.5589
2.6857
2.81439
2.88513
2.90233
2.92816
2.752
2.78542
2.8276
2.86361
2.89455
2.94439
2.96297
2.97528
2.97679
2.97095
2.97685
2.98844
2.99754
2.99949
2.99975
2.99869
2.99791
2.99819
2.99784
2.99934
2.9983
2.99995
3
3
3
3
3
3
3
3
3
2.99978
2.99998
2.99998
3
3
3
2.99998
2.99999
2.99999
2.99999
2.99998
2.99998
2.99999
3
3
3
3
2.99997
2.99996
2.99983
2.99998
2.99981
2.99964
2.99993
3
2.99988
2.99998
2.99994
2.99993
2.99994
2.99996
2.99997
3
3
3
2.99999
2.99999
2.9999
2.99977
2.99986
2.99988
2.99962
2.99962
2.99971
2.99988
3
2.99999
2.99999
2.99998
2.99997
2.99998
3
3
2.99998
2.99997
2.99999
2.99999
2.99999
2.99996
2.99998
2.99972
2.99962
2.99963
2.99991
3
3
3
3
3
3
2.99999
2.99996
2.99991
2.99992
2.99997
2.99999
2.99997
2.99997
2.99998
2.99976
2.99962
2.99987
2.99991
3
3
3
2.99999
2.99998
2.99994
2.9999
2.99987
2.99987
2.99994
2.99998
2.99994
2.99981
2.99987
2.99991
2.99992
2.99985
2.99994
2.99991
2.99994
2.99993
2.99998
2.99994
2.99988
2.99986
2.99986
2.99987
2.99992
2.99998
2.99998
2.99983
2.99978
2.99979
2.99999
2.99998
2.99998
2.99994
2.99991
2.99981
2.99985
2.99986
2.99986
2.99987
2.99988
2.99988
2.99988
2.99998
2.99998
2.99994
2.99981
2.99977
2.99987
2.99997
2.99998
2.99995
2.99995
2.99998
2.99983
2.99984
2.99986
2.99987
2.99986
2.99988
2.99994
2.99995
2.99989
2.99995
2.99995
2.99987
2.99986
2.99986
2.99987
2.99989
2.99996
2.99999
2.99999
2.99987
2.99996
2.99988
2.99987
2.99987
2.99995
2.99996
2.99993
2.99989
2.99989
2.99989
2.99996
2.99997
2.99996
2.99996
2.99996
2.99995
2.99998
2.99999
3
3
2.99999
2.9999
2.99994
2.99998
2.99998
2.99997
2.99995
2.99992
2.99989
2.99993
2.99998
2.99998
2.99998
2.99995
2.99994
2.99996
2.99999
3
3
3
3
2.99999
2.99999
2.99998
2.99999
3
3
2.99999
2.99999
2.99996
2.99996
2.99994
2.99994
2.99994
2.99997
3
3
3
3
3
3
3
3
3
3
3
3
3
3
2.99997
2.99995
2.99994
2.99995
2.99999
3
3
3
3
3
3
3
3
3
3
3
3
3
3
3
3
2.99996
2.99998
3
3
3
3
3
3
3
3
3
3
3
3
3
3
3
3
3
3
3
3
3
3
3
3
3
3
3
3
3
3
3
3
3
3
3
3
3
3
3
3
3
3
3
3
3
3
3
3
3
3
3
3
3
3
3
3
3
3
3
3
3
3
3
3
3
3
3
3
3
3
3
3
3
3
3
3
3
3
3
3
3
3
3
3
3
3
3
3
3
3
3
3
3
3
3
3
2.99999
3
3
3
3
3
3
3
3
3
3
3
3
3
3
3
3
3
3
3
3
3
3
3
3
3
3
3
3
3
3
3
3
3
3
3
3
3
3
3
3
3
3
3
3
3
3
3
3
3
3
3
3
3
3
3
3
3
3
3
3
3
3
3
3
3
3
3
3
3
3
3
3
3
3
3
3
3
3
3
3
3
3
3
3
3
3
3
3
3
3
3
3
3
3
3
3
3
3
3
3
3
3
3
3
3
3
3
3
3
3
3
3
3
3
3
3
3
3
3
3
3
3
3
3
3
3
3
3
3
3
3
3
3
3
3
3
3
3
3
3
3
3
3
3
2.99999
3
3
3
3
3
3
3
3
3
3
3
3
3
3
3
3
3
3
2.99999
2.99999
3
3
3
3
3
3
3
3
3
3
3
3
3
3
3
3
3
3
2.99999
2.99999
3
3
3
3
3
3
3
3
3
3
3
3
3
3
3
3
3
2.99999
2.99999
2.99999
3
3
3
2.99999
3
3
3
3
3
3
3
3
3
3
3
3
3
2.99999
2.99999
2.99999
3
3
2.99999
3
3
3
3
3
3
3
3
3
3
3
3
3
3
3
2.99999
3
3
2.99999
3
3
3
3
3
3
3
3
3
3
3
3
3
3
3
3
2.99999
3
3
)
;

boundaryField
{
    leftWall
    {
        type            calculated;
        value           nonuniform List<scalar> 
50
(
2
2
2
2
1.93415
0.616311
0.00364134
0.00162157
0.00992178
0.117275
0.809367
1.01717
1.00051
1.00041
1.00507
2.11081
2.99758
2.99997
3
3
3
3
3
3
3
3
3
3
3
3
3
3
3
3
3
3
3
3
3
3
3
3
3
3
3
3
3
3
3
3
)
;
    }
    rightWall
    {
        type            calculated;
        value           nonuniform List<scalar> 
50
(
1.97145
1.89945
1.44223
0.576953
0.255312
0.0958746
0.112812
0.226597
0.258551
0.23663
0.18008
0.597655
1.00284
1.00375
1.72276
2.92816
2.99784
2.99998
2.99988
2.99988
2.99991
2.99991
2.99991
2.99991
2.99998
2.99999
2.99999
2.99999
3
3
3
3
3
3
3
2.99999
3
3
3
3
3
3
3
3
3
3
2.99999
2.99999
2.99999
3
)
;
    }
    lowerWall
    {
        type            calculated;
        value           nonuniform List<scalar> 
62
(
2
2
2
2
2
2
2
2
2
2
2
2
2
2
2
2
2
2
2
2
1.99997
1.99996
1.99996
1.99996
1.99998
2
2
2
2.0013
1.91872
0.799065
0.0239826
0.0203569
0.0151007
0.0144432
1.96068
1.97072
1.8676
1.77422
0.78558
0.285745
0.16666
0.0142998
1.96068
1.96654
1.97508
1.97375
1.97073
1.96422
1.96303
1.96289
1.96243
1.96149
1.96076
1.96206
1.9675
1.96791
1.96786
1.96822
1.97091
1.97177
1.97145
)
;
    }
    atmosphere
    {
        type            calculated;
        value           nonuniform List<scalar> 
46
(
3
3
3
3
3
3
3
3
3
3
3
3
3
3
3
3
3
3
3
3
3
3
3
3
3
3
3
3
3
3
3
3
3
3
3
3
3
3
3
3
3
3
3
2.99999
3
3
)
;
    }
    defaultFaces
    {
        type            empty;
    }
}


// ************************************************************************* //
