/*--------------------------------*- C++ -*----------------------------------*\
| =========                 |                                                 |
| \\      /  F ield         | OpenFOAM: The Open Source CFD Toolbox           |
|  \\    /   O peration     | Version:  2312                                  |
|   \\  /    A nd           | Website:  www.openfoam.com                      |
|    \\/     M anipulation  |                                                 |
\*---------------------------------------------------------------------------*/
FoamFile
{
    version     2.0;
    format      ascii;
    arch        "LSB;label=32;scalar=64";
    class       volScalarField;
    location    "5.85";
    object      alpha.galistan;
}
// * * * * * * * * * * * * * * * * * * * * * * * * * * * * * * * * * * * * * //

dimensions      [0 0 0 0 0 0 0];

internalField   nonuniform List<scalar> 
2268
(
1
1
1
1
1
1
1
1
1
1
1
1
1
1
1
1
1
1
1
0.999999
0.99997
0.999958
0.999958
1
1
1
1
1
1
1
1
1
1
1
1
1
1
1
1
1
1
1
1
0.99999
0.999963
0.999977
1
1
1
1
1
1
1
1
1
1
1
1
1
1
1
1
1
1
1
1
1
0.999997
1
1
1
1
1
1
1
1
1
0.999999
1
1
1
1
1
1
0.999999
1
1
1
1
1
1
1
0.965663
0.968087
0.971795
0.97622
0.981206
0.986522
0.992812
0.999592
0.99986
0.999919
0.999903
0.999884
0.999803
0.999885
0.999949
0.999974
0.999995
1
1
1
1
1
1
0.304325
0.312884
0.327837
0.347242
0.371432
0.401237
0.436994
0.482186
0.547277
0.624212
0.708476
0.783596
0.859143
0.927579
0.979621
0.999662
0.997109
0.994991
0.98926
0.991979
0.995488
0.996911
0.997598
4.12858e-19
0
3.36617e-24
5.25546e-12
-1.61772e-08
2.47302e-06
0.000222199
0.00135106
0.00495878
0.0135074
0.0348337
0.0823318
0.148857
0.23948
0.358422
0.50081
0.620576
0.72484
0.81434
0.86274
0.884142
0.903011
0.922537
7.16304e-09
1.32114e-07
2.01049e-05
5.15356e-05
1.37566e-16
5.30103e-15
1.50365e-08
1.88185e-20
1.12175e-21
-8.4604e-18
3.02726e-20
-7.32472e-09
5.28891e-08
6.38831e-05
0.00011341
0.0106695
0.0574658
0.111248
0.166735
0.225234
0.276467
0.316623
0.350363
0.966305
0.96597
0.965058
0.9644
0.964443
0.965167
0.965168
0.965167
0.965169
0.965033
0.964664
0.965319
0.967905
0.967905
0.967904
0.967905
0.967905
0.967906
0.967837
0.971634
0.972349
0.972374
0.969262
0.956244
0.953839
0.951698
0.949455
0.944554
0.941171
0.941978
0.941246
0.938711
0.938277
0.938694
0.931387
0.914573
0.903645
0.894525
0.867038
0.855131
0.82164
0.765844
0.702935
0.651706
0.619801
0.602707
0.591501
0.578421
0.570651
0.581751
0.557998
0.536907
0.520002
0.502037
0.49047
0.481713
0.484903
0.761586
0.604384
0.348566
0.161691
0.0800196
0.0406913
0.0154277
0.00448356
0.000394435
0.000557278
0.000720492
0.00522122
0.0210315
0.0180939
0.0186901
0.0462628
0.0346259
0.0129699
0.0156592
0.247967
0.0534999
6.00684e-06
-7.00866e-07
1.8125e-22
8.08641e-23
-2.6641e-21
3.60552e-06
0.000381755
0.000967715
0.00956896
0.00294826
0.000329407
4.039e-09
2.45253e-11
-2.08351e-09
1.09421e-10
0.00021191
0.000210866
3.76565e-20
-9.65745e-06
0.00357902
0.00459028
0.0016279
9.49136e-05
0.000622491
0.000866273
0.00130939
0.00694232
0.0222134
0.0101169
0.000966802
0.00288551
0.00585323
3.6548e-06
0.00111572
0.00164424
0.000312545
0.000250881
0.00409019
0.00611778
0.00611625
0.00439939
0.000159779
0.000596777
0.000894098
0.00147153
0.0222323
0.0221903
0.00965529
0.00135712
0.00115809
0.00494188
0.00597234
0.0044732
0.00227012
0.00030696
0.00054891
0.00440014
0.00373614
0.00517478
0.00515523
0.00245741
0.000421355
0.000457551
0.00209968
0.0222522
0.0153749
0.00122998
0.00107709
0.00172926
0.0036655
0.00780045
0.00383117
0.00219402
0.00130083
1.36305e-05
4.16871e-07
5.36334e-05
0.00044792
0.000743132
0.00014883
2.01416e-13
2.10789e-13
4.21807e-10
1.89321e-07
4.88695e-06
1.68932e-05
1.60651e-05
8.12359e-06
5.72838e-19
-2.13454e-07
-1.2593e-12
9.76496e-06
1.40186e-08
1.50718e-08
2.18878e-08
1.2184e-06
-9.89437e-13
0.000337
0.00010275
6.74105e-05
0.00137853
0.00199781
0.00192664
0.00094241
0.00082404
0.000444721
0.000114953
0.000239816
0.00016693
1.60885e-05
0.000210704
0.000445169
0.000159871
4.09611e-28
1.88714e-09
4.21127e-05
0.000734973
0.00118349
0.000800537
-4.69048e-19
0.000407699
0.000407663
0.000175178
0.000330787
0.00176787
0.00202096
0.00207533
0.00230648
0.00230766
0.00125428
0.000177626
0.000385483
0.00308604
0.00464724
0.00464515
0.00438241
0.00394398
0.00402519
0.00563226
0.00599862
0.00546085
0.000747002
0.000455385
0.000256899
0.000203234
0.000153444
0.00015075
0.00016435
0.000135365
0.000199267
0.00187034
0.0023041
0.00105855
5.03402e-05
0.000571142
0.00243209
0.00462872
0.0039939
0.00311938
0.00270565
0.00262595
0.00457156
0.00599451
0.00597436
0.00517673
0.00514425
8.62638e-05
7.68205e-05
3.71904e-05
7.47177e-06
7.47175e-06
7.47176e-06
3.89535e-05
0.0015211
0.00230616
0.000390839
4.88887e-05
0.000125675
0.000430698
0.000544309
0.000351819
0.000200451
0.000187651
0.00019137
0.000313748
0.00096958
0.00317232
0.00487808
0.001898
0.000105025
9.6077e-05
3.88064e-05
7.47176e-06
7.47176e-06
7.47175e-06
7.47535e-06
0.00055898
0.00152416
7.67712e-05
4.87936e-05
4.92523e-05
1.68202e-05
8.41197e-06
1.9578e-05
6.33868e-05
5.09257e-05
9.02229e-06
3.9276e-05
0.000442484
0.000643066
0.000381356
0.000207979
0.000372536
0.00024792
6.8706e-05
2.154e-05
7.51771e-06
2.37693e-05
0.000178931
0.000152579
0.000153689
8.68738e-05
8.95799e-05
7.61333e-05
4.32768e-05
7.61284e-06
7.98521e-06
8.74392e-06
8.78766e-06
8.61931e-06
8.55658e-06
0.000155108
0.00134534
0.00136212
0.00111894
0.000402617
0.000402616
0.000287165
0.000158888
0.000384039
0.000623224
0.000629871
0.000395191
0.000158751
0.00012024
0.000152657
0.000180631
8.75057e-05
7.67687e-06
2.19719e-05
0.000176484
0.000257362
0.000259323
0.000184658
3.43682e-05
0.000103204
0.00135983
0.00221928
0.000262281
0.000320678
0.000288036
5.97837e-05
5.5014e-05
0.000397284
0.000660747
0.000660697
0.000624179
0.000570311
0.000574193
0.000574942
0.000349034
7.65506e-06
9.63057e-05
0.00031349
0.000312005
0.000131641
2.33551e-05
4.41126e-05
0.000600687
0.000854296
0.000853117
3.06388e-06
1.31632e-05
4.79943e-05
1.62017e-05
1.98977e-06
2.43674e-05
0.000169578
0.0003448
0.000473589
0.000443038
0.000524516
0.000574882
0.000469719
2.57179e-05
6.55334e-05
0.000268006
0.000196484
7.91798e-06
8.12226e-08
1.18651e-05
3.37603e-05
7.88171e-07
1.56919e-05
5.06265e-08
2.26434e-07
1.25511e-07
1.42539e-09
1.03898e-09
1.82824e-08
4.10738e-09
2.48347e-09
1.23544e-05
2.27234e-05
7.99569e-05
0.000179061
0.000113349
1.53625e-05
6.47962e-06
1.72811e-05
7.07394e-06
4.31392e-08
7.99367e-08
1.02203e-06
4.44628e-07
2.89644e-07
2.89228e-07
5.07098e-09
2.73047e-08
4.52416e-08
4.37425e-08
6.02329e-08
7.40146e-08
5.78031e-08
1.49025e-08
9.25547e-09
2.98969e-08
1.72337e-07
1.2351e-07
1.82784e-08
2.30403e-06
7.28494e-07
1.71869e-06
1.0211e-06
4.32056e-08
1.13358e-08
1.13288e-08
3.70029e-07
3.16754e-06
3.95602e-06
7.19285e-09
3.62342e-08
9.16763e-08
9.58527e-08
9.57975e-08
6.23666e-08
3.12906e-08
8.73217e-09
1.37905e-08
2.39789e-08
3.33629e-08
4.40065e-08
1.82344e-08
2.6263e-08
3.70629e-08
7.49967e-08
1.2479e-07
3.20066e-08
1.17351e-08
1.13544e-08
4.57881e-07
4.21238e-06
4.90753e-06
5.47247e-09
2.09167e-08
6.49232e-08
7.07433e-08
5.27516e-08
4.06824e-08
1.84191e-08
5.29595e-09
7.90259e-09
1.89535e-08
2.60939e-08
2.03879e-08
1.84147e-08
4.04777e-09
4.04532e-09
1.13647e-08
3.87862e-08
3.0363e-08
9.13447e-07
1.65919e-06
1.38289e-06
9.24438e-08
1.15298e-07
3.32935e-09
1.42448e-08
3.81476e-08
3.99571e-08
1.96256e-08
1.78126e-08
1.12781e-08
3.92886e-09
3.62852e-09
7.16009e-09
1.72292e-08
1.16606e-08
8.26524e-09
4.06093e-09
4.3527e-09
3.12692e-09
1.38033e-08
2.28676e-07
9.91225e-07
4.88616e-07
9.25352e-08
9.34396e-08
4.34538e-08
2.36852e-09
8.46141e-09
1.44022e-08
1.41999e-08
9.10568e-09
7.68805e-09
6.11524e-09
3.19858e-09
2.37626e-09
3.02919e-09
4.07661e-09
4.21678e-09
3.32145e-09
3.35237e-09
3.5248e-09
1.94931e-09
7.71404e-08
3.95199e-07
2.96347e-07
4.05305e-08
2.34782e-07
1.03085e-06
1.3255e-07
1.6315e-09
3.63788e-09
4.47131e-09
4.4982e-09
4.76411e-09
4.24347e-09
3.35907e-09
2.48795e-09
1.94123e-09
1.9219e-09
2.02836e-09
2.10005e-09
2.08393e-09
2.28561e-09
2.16197e-09
1.89821e-09
7.74792e-08
2.63133e-07
7.17527e-08
1.26815e-08
1.11327e-06
1.90468e-06
2.31553e-07
1.07845e-09
1.85971e-09
2.37096e-09
2.71152e-09
2.78901e-09
2.52923e-09
2.13483e-09
1.73202e-09
1.44849e-09
1.29917e-09
1.14333e-09
1.13459e-09
1.22173e-09
1.33495e-09
1.42647e-09
2.38092e-09
3.27723e-08
3.0812e-08
1.44809e-08
6.59862e-09
9.155e-07
1.90857e-06
1.10783e-06
8.5642e-10
1.1886e-09
1.46934e-09
1.68005e-09
1.6927e-09
1.54032e-09
1.29211e-09
1.08454e-09
9.54033e-10
8.33507e-10
7.67643e-10
8.21237e-10
8.83497e-10
9.88269e-10
1.14023e-09
2.12892e-09
4.53721e-09
4.34715e-09
5.83543e-09
5.29159e-09
5.15996e-09
1.33446e-06
1.29378e-06
7.16199e-10
8.29461e-10
9.92294e-10
1.06617e-09
1.0088e-09
8.83585e-10
7.59514e-10
6.45997e-10
5.66113e-10
5.19894e-10
4.85814e-10
4.94995e-10
5.44771e-10
6.43234e-10
7.88343e-10
1.30162e-09
2.22481e-09
2.29837e-09
3.59894e-09
3.67346e-09
4.80365e-08
2.07914e-07
1.27146e-07
6.26569e-10
5.96289e-10
6.62405e-10
6.62149e-10
5.94721e-10
5.02369e-10
4.17281e-10
3.5254e-10
3.03699e-10
2.76431e-10
2.56062e-10
2.51759e-10
2.77955e-10
3.38811e-10
4.3974e-10
6.62455e-10
1.15604e-09
1.40445e-09
1.56221e-09
3.35736e-09
6.55766e-08
1.20648e-07
9.05082e-08
5.60989e-10
4.31771e-10
4.42035e-10
4.09769e-10
3.47255e-10
2.78141e-10
2.18536e-10
1.77252e-10
1.4766e-10
1.27999e-10
1.15103e-10
1.10647e-10
1.22519e-10
1.53214e-10
2.07968e-10
3.1195e-10
5.282e-10
8.1637e-10
1.2308e-09
5.32294e-09
2.3455e-08
8.37346e-08
1.04466e-07
5.03721e-10
3.15026e-10
3.00654e-10
2.64355e-10
2.16172e-10
1.67133e-10
1.23957e-10
9.16261e-11
6.95822e-11
5.51317e-11
4.65908e-11
4.33389e-11
4.74754e-11
6.0422e-11
8.61474e-11
1.35023e-10
2.33112e-10
4.09466e-10
8.00207e-10
2.08977e-09
4.8306e-09
1.99623e-08
8.7248e-08
4.5717e-10
2.37079e-10
2.20179e-10
1.95923e-10
1.60737e-10
1.21993e-10
8.67263e-11
6.05479e-11
4.11411e-11
2.83555e-11
2.04333e-11
1.66627e-11
1.68252e-11
2.10562e-11
3.12566e-11
5.29649e-11
9.92423e-11
1.9106e-10
3.5661e-10
7.17176e-10
8.2749e-10
5.69777e-09
2.14537e-08
4.18951e-10
1.87482e-10
1.84435e-10
1.81565e-10
1.64381e-10
1.2869e-10
8.8676e-11
5.69199e-11
3.47389e-11
2.10004e-11
1.30392e-11
8.33208e-12
6.49856e-12
6.93884e-12
1.00948e-11
1.83089e-11
3.76156e-11
7.95667e-11
1.53393e-10
2.82681e-10
4.564e-10
5.31064e-10
4.09134e-09
3.89416e-10
1.60449e-10
1.81546e-10
2.06294e-10
2.04441e-10
1.48062e-10
9.7232e-11
6.01343e-11
3.63929e-11
2.1147e-11
1.19332e-11
6.55801e-12
3.77941e-12
2.73325e-12
3.13608e-12
5.48017e-12
1.16266e-11
2.58667e-11
5.27908e-11
1.09874e-10
2.07681e-10
5.46405e-10
1.19932e-09
3.66082e-10
1.54056e-10
2.05335e-10
2.57911e-10
2.71935e-10
1.73503e-10
1.05035e-10
6.09224e-11
3.73677e-11
2.15084e-11
1.19609e-11
6.46936e-12
3.26563e-12
1.72053e-12
1.20274e-12
1.53542e-12
2.97514e-12
6.51655e-12
1.35013e-11
2.91179e-11
6.22935e-11
1.29503e-10
2.89116e-10
3.52043e-10
1.64292e-10
2.58134e-10
3.54937e-10
3.79692e-10
2.0782e-10
1.0721e-10
5.77692e-11
3.56115e-11
2.03407e-11
1.14308e-11
6.22796e-12
3.16478e-12
1.5364e-12
7.55797e-13
5.27768e-13
7.17156e-13
1.37443e-12
2.67052e-12
5.4683e-12
1.06257e-11
2.42049e-11
4.78079e-11
3.32507e-10
1.9451e-10
3.5441e-10
5.24835e-10
4.90043e-10
2.46618e-10
1.02793e-10
5.45922e-11
3.17416e-11
1.76063e-11
9.99178e-12
5.58925e-12
2.93595e-12
1.44471e-12
6.55539e-13
3.07369e-13
2.21317e-13
2.973e-13
4.97641e-13
8.93798e-13
1.52815e-12
2.71234e-12
6.0262e-12
3.30088e-10
2.43793e-10
4.90926e-10
7.02367e-10
5.30831e-10
2.55713e-10
9.9186e-11
5.49285e-11
2.74344e-11
1.41849e-11
7.95346e-12
4.56338e-12
2.51943e-12
1.28609e-12
5.99443e-13
2.53079e-13
1.18316e-13
8.53749e-14
1.23632e-13
2.00879e-13
3.07184e-13
5.57652e-13
9.8842e-13
3.372e-10
3.16227e-10
6.5799e-10
8.49785e-10
5.42761e-10
2.4384e-10
1.07519e-10
5.66814e-11
2.36811e-11
1.08376e-11
5.82798e-12
3.39686e-12
1.96759e-12
1.05773e-12
5.20708e-13
2.23299e-13
8.86422e-14
4.3763e-14
4.75186e-14
7.90291e-14
1.41218e-13
2.56642e-13
4.64547e-13
3.50501e-10
3.96907e-10
8.30139e-10
9.22331e-10
5.567e-10
2.47911e-10
1.32746e-10
5.84639e-11
2.10201e-11
8.05228e-12
4.03111e-12
2.32976e-12
1.3807e-12
7.91204e-13
4.15203e-13
1.90086e-13
7.60586e-14
2.99139e-14
2.35225e-14
3.96212e-14
8.01942e-14
1.70876e-13
3.11126e-13
3.70608e-10
4.82816e-10
9.50277e-10
9.58921e-10
5.77861e-10
2.76068e-10
1.58534e-10
6.21311e-11
1.96542e-11
6.06721e-12
2.69463e-12
1.52592e-12
9.02794e-13
5.274e-13
2.9623e-13
1.50097e-13
6.42289e-14
2.35846e-14
1.26353e-14
2.13199e-14
4.48373e-14
1.04149e-13
2.14025e-13
3.90545e-10
5.67422e-10
1.04042e-09
9.67019e-10
5.69639e-10
3.2127e-10
1.82757e-10
6.98139e-11
1.94977e-11
4.68084e-12
1.73924e-12
9.18927e-13
5.35571e-13
3.14897e-13
1.88868e-13
1.04942e-13
4.99264e-14
1.96326e-14
7.44566e-15
1.07485e-14
2.52741e-14
6.57025e-14
1.28184e-13
4.13114e-10
6.45805e-10
1.11881e-09
9.57422e-10
5.66852e-10
3.67035e-10
2.13059e-10
7.66644e-11
1.9461e-11
3.7546e-12
1.10731e-12
5.51962e-13
2.96706e-13
1.71805e-13
1.0477e-13
6.36317e-14
3.44956e-14
1.48555e-14
5.27152e-15
5.22301e-15
1.05196e-14
2.80438e-14
6.55628e-14
4.3463e-10
7.10897e-10
1.14817e-09
9.54169e-10
5.94809e-10
4.09958e-10
2.30508e-10
7.86141e-11
1.79926e-11
3.11516e-12
6.92203e-13
3.10789e-13
1.61504e-13
8.57551e-14
4.98461e-14
3.25528e-14
2.03811e-14
1.04593e-14
3.58772e-15
2.4738e-15
5.2331e-15
1.29565e-14
2.94439e-14
4.47924e-10
7.4625e-10
1.14826e-09
9.50828e-10
6.20478e-10
4.48383e-10
2.16309e-10
6.50209e-11
1.51327e-11
2.44162e-12
4.05576e-13
1.6201e-13
8.34535e-14
4.03613e-14
2.11676e-14
1.36362e-14
9.70985e-15
6.14607e-15
2.33621e-15
9.91126e-16
1.44345e-15
3.63413e-15
1.05887e-14
4.66564e-10
7.4289e-10
1.13984e-09
9.37684e-10
6.18601e-10
4.68556e-10
1.91247e-10
5.4339e-11
1.19549e-11
1.69889e-12
2.13387e-13
7.96892e-14
4.01297e-14
1.80602e-14
8.1266e-15
4.63126e-15
3.52784e-15
2.69569e-15
1.30989e-15
4.65312e-16
4.82823e-16
1.10002e-15
2.50649e-15
4.86332e-10
7.27196e-10
1.11431e-09
9.22658e-10
6.22975e-10
4.07043e-10
1.49087e-10
3.93436e-11
7.43931e-12
9.16273e-13
9.43608e-14
3.23222e-14
1.6919e-14
7.4101e-15
2.88585e-15
1.31032e-15
9.46334e-16
8.52939e-16
5.87248e-16
2.26968e-16
1.22245e-16
1.87659e-16
5.06489e-16
5.15594e-10
6.93053e-10
1.08322e-09
8.13237e-10
5.85532e-10
2.76194e-10
8.51135e-11
2.20185e-11
3.03329e-12
3.20621e-13
2.86164e-14
9.88075e-15
5.6078e-15
2.54446e-15
9.19191e-16
3.20681e-16
1.76538e-16
1.7996e-16
1.89273e-16
1.05329e-16
3.74015e-17
4.39121e-17
8.42271e-17
5.26937e-10
6.07425e-10
1.02892e-09
6.51038e-10
3.89565e-10
1.17684e-10
3.57215e-11
8.57223e-12
9.30583e-13
6.92818e-14
5.28986e-15
2.03659e-15
1.30598e-15
6.38827e-16
2.30659e-16
6.66087e-17
2.52688e-17
2.58598e-17
3.95871e-17
4.06507e-17
1.32926e-17
8.30834e-18
1.36605e-17
6.00914e-10
5.1726e-10
8.18028e-10
4.40256e-10
9.34569e-11
2.11272e-11
6.79869e-12
1.36066e-12
1.01917e-13
4.50152e-15
3.78765e-16
2.13904e-16
1.63432e-16
8.99305e-17
3.41487e-17
9.20595e-18
2.54724e-18
2.68968e-18
6.30223e-18
1.10381e-17
5.63541e-18
2.11955e-18
1.98114e-18
0.00132518
0.00266105
0.00265624
0.0024218
0.000781828
0.00130363
0.00128586
0.00114631
0.0017903
0.00205995
0.00263056
0.00553501
0.00989679
0.0104364
0.0104367
0.0104361
0.000243755
0.00119925
0.00626724
0.00927112
0.000209769
0.000203318
0.000120373
6.56464e-05
0.000311405
0.000408131
0.000234962
6.32426e-05
0.00221959
0.00163184
0.00025076
0.000389439
0.00109397
0.00144513
0.00144341
0.00141366
0.000158399
0.000224375
0.000229196
0.00015304
5.63615e-07
3.1716e-07
2.22382e-07
1.64008e-07
4.8349e-06
3.67112e-06
2.3679e-06
9.62384e-07
5.00308e-06
5.00765e-06
4.33299e-06
4.65266e-07
4.134e-08
2.84501e-08
1.82752e-08
2.19013e-08
2.25424e-08
1.83128e-08
1.76692e-08
1.71195e-08
2.54489e-08
1.05246e-07
1.91726e-07
2.0788e-07
2.89013e-08
9.99787e-07
2.53811e-06
2.14659e-06
6.14583e-08
1.34954e-06
3.1412e-06
3.14203e-06
2.72896e-07
3.98451e-07
1.15017e-06
2.32806e-06
3.78295e-08
2.17981e-07
1.14071e-07
4.31288e-09
3.86008e-08
1.68196e-08
6.06365e-09
4.54577e-09
1.04461e-07
1.01499e-07
9.54195e-08
5.7224e-08
1.04406e-07
1.04405e-07
9.86813e-08
7.929e-08
2.32596e-08
4.85674e-08
6.62275e-08
5.51014e-08
6.04753e-09
8.46555e-09
1.43256e-08
1.79711e-08
1.58092e-09
2.42963e-09
2.51121e-09
1.94902e-09
3.53193e-10
3.71105e-10
4.0145e-10
3.8731e-10
6.82779e-11
7.65119e-11
7.11444e-11
5.20593e-11
8.02669e-12
8.55352e-12
8.56091e-12
7.63198e-12
1.32353e-12
1.67294e-12
1.83546e-12
2.06632e-12
6.57593e-13
8.18066e-13
1.04661e-12
1.28842e-12
4.4668e-13
6.09271e-13
7.93337e-13
1.03739e-12
3.18755e-13
4.38929e-13
6.28018e-13
8.39508e-13
2.2063e-13
3.02709e-13
4.30834e-13
6.08331e-13
1.12053e-13
1.64169e-13
2.57016e-13
3.78315e-13
5.47773e-14
8.11545e-14
1.32608e-13
1.96971e-13
1.84519e-14
3.18192e-14
5.12585e-14
8.62106e-14
5.38905e-15
7.80877e-15
1.41368e-14
2.45131e-14
9.02984e-16
1.50307e-15
2.54606e-15
4.75745e-15
1.42046e-16
1.88528e-16
3.08713e-16
5.49187e-16
1.74824e-17
1.91556e-17
2.71106e-17
4.23803e-17
2.03066e-18
1.52956e-18
2.13391e-18
2.35538e-18
0.00130894
0.00121467
0.00120931
0.00246066
0.00332221
0.000980504
0.000679344
0.00311129
0.0132548
0.0222415
0.000482465
7.74025e-05
0.000101396
0.000508705
0.0012461
0.00405339
0.00335865
0.0015285
0.00128683
0.00114957
0.00207926
0.00314156
0.00186243
0.00133753
0.00383181
0.0156966
0.0231335
0.0231335
0.0127799
7.45935e-05
7.48094e-05
7.46315e-05
0.000210968
0.000647329
0.00368846
0.00673616
0.00356573
0.00115849
0.00956833
0.0104106
0.00746176
0.00206412
0.00295177
0.0163799
0.0219418
0.0225865
0.0231364
0.0148686
0.000432807
0.000560861
7.49969e-05
0.00135803
0.00597179
0.00673701
0.00673701
0.00516408
0.0011524
0.0104363
0.010428
0.0104312
0.0101125
0.00516618
0.00329848
0.00306683
0.00438048
0.00505123
0.00300091
0.00247258
0.00187147
0.000538282
0.00158895
0.00492824
0.00673701
0.00671
0.00464495
0.00366666
0.00656994
0.00240787
0.00193207
0.00168392
0.00157433
0.000111221
0.000135501
0.000603376
0.000870928
0.000761468
0.000541002
0.000460048
0.00059481
0.00159161
0.00126923
0.00187978
0.00233248
0.00208674
0.00209212
6.30929e-05
6.27591e-05
6.30929e-05
6.27591e-05
6.30995e-05
8.54572e-05
8.65577e-05
0.000300112
0.000619884
0.000631262
0.000627318
0.000460331
0.000459205
0.000498891
0.000767931
0.000775742
0.000883925
0.00194606
0.00458891
6.28212e-05
0.000102842
0.000388936
0.000529469
0.000261818
0.000143844
0.000112743
9.33684e-05
0.00023392
0.00117718
0.00169252
0.0012932
0.000771202
0.00107341
0.00211993
0.0038547
0.00628562
0.00680076
0.00679977
0.000723259
0.00115246
0.00141842
0.00141784
0.00138884
0.000645743
0.000309868
6.32493e-05
0.00011827
0.00127645
0.00196487
0.00197566
0.00167371
0.00229967
0.00439173
0.00505781
0.00537541
0.00613749
0.00680086
0.00140233
0.00140379
0.00135386
0.00114838
0.000816832
0.000507761
0.000151458
5.39341e-05
7.1966e-05
1.39924e-05
0.000111363
0.000453276
0.000549194
0.00041931
0.000252908
0.000764592
0.000770132
0.000795003
0.00122505
0.000152549
0.000144737
4.78902e-05
9.33623e-27
1.79551e-26
-3.5878e-13
-1.52666e-26
2.71433e-16
2.18265e-16
-4.51079e-15
2.47267e-18
-4.55219e-08
-6.37729e-20
6.21673e-26
-3.31216e-12
-3.09196e-10
-3.32111e-09
6.99267e-08
1.3117e-07
1.47382e-07
1.4656e-07
-1.11277e-08
9.25271e-09
5.09708e-09
1.32946e-10
5.30029e-09
1.50487e-09
8.28589e-10
-5.31916e-26
2.99263e-08
3.71647e-06
5.52961e-06
6.26796e-07
4.63871e-12
2.12441e-07
2.89803e-07
2.48527e-07
7.36692e-07
1.93812e-06
2.23049e-06
1.76451e-06
9.90619e-08
3.00566e-08
1.73872e-10
3.5222e-09
4.64963e-09
9.83916e-09
2.07317e-09
3.58178e-09
3.38081e-09
7.68375e-08
2.05905e-07
8.16668e-07
1.93528e-06
4.40167e-07
2.74811e-07
2.04835e-06
3.54761e-08
3.36272e-07
2.79657e-07
2.12023e-07
1.57443e-09
1.96536e-10
1.84388e-10
5.75597e-09
4.54051e-08
4.2321e-08
3.14913e-08
8.55156e-09
5.18531e-08
2.01323e-07
1.80696e-06
2.43843e-06
1.71732e-06
2.46452e-07
2.375e-06
1.4866e-08
1.96708e-08
2.21772e-08
1.70715e-08
7.72299e-08
8.2612e-08
1.04295e-07
1.99416e-07
9.57934e-08
8.20943e-08
8.6516e-08
1.8562e-08
1.98565e-08
1.61753e-06
2.44385e-06
2.4426e-06
1.98563e-06
2.45628e-07
2.25546e-06
1.65004e-08
4.05651e-08
1.36112e-07
9.4786e-08
6.01847e-07
1.11081e-06
1.28004e-06
6.9336e-07
1.19207e-07
2.54268e-08
8.63461e-08
1.05472e-07
2.9571e-07
2.45027e-06
2.45149e-06
2.15501e-06
4.78432e-07
5.57344e-07
2.43371e-06
4.40163e-08
4.00174e-08
5.85122e-07
1.15668e-06
1.63279e-06
1.6353e-06
1.63674e-06
1.36371e-06
6.05423e-08
2.25109e-08
4.06588e-08
2.36105e-07
6.40661e-07
1.25376e-06
1.4053e-06
8.303e-07
4.71851e-07
2.60416e-06
2.60668e-06
1.23415e-06
7.31883e-07
1.04362e-06
1.50579e-06
1.62443e-06
1.63367e-06
1.63282e-06
1.24331e-06
9.01771e-08
2.81355e-08
6.76716e-08
1.77166e-07
7.6957e-08
3.26171e-07
6.35717e-07
6.45977e-07
1.73922e-06
2.37178e-06
2.17942e-06
3.1412e-06
2.35457e-06
7.27553e-07
7.02644e-07
1.25963e-06
1.63047e-06
1.63054e-06
1.38774e-06
4.14395e-07
1.50365e-07
2.49711e-08
2.38491e-08
8.54831e-08
1.37249e-06
1.83461e-06
1.83398e-06
8.04993e-07
4.54933e-07
7.47858e-07
2.97268e-06
2.98137e-06
9.49749e-07
3.23101e-07
1.25988e-07
1.21107e-06
1.56155e-06
2.56723e-07
5.07015e-07
8.02039e-07
8.06498e-07
6.55671e-07
4.79484e-07
7.3992e-07
1.23678e-06
2.28866e-07
5.11778e-08
5.1476e-08
9.15944e-08
2.64846e-07
1.34243e-06
1.49551e-06
1.4823e-07
1.25877e-07
3.95549e-07
4.71238e-07
7.16321e-08
1.44692e-07
6.57141e-07
1.20098e-06
1.20204e-06
1.20185e-06
1.19684e-06
1.72397e-07
5.34312e-08
6.62402e-08
1.50878e-07
2.03842e-07
1.50764e-09
1.54103e-09
2.53641e-07
1.83333e-07
1.25508e-07
1.91551e-07
1.80645e-07
7.02631e-08
1.88307e-08
5.58136e-09
2.63318e-07
8.37774e-07
1.04781e-06
6.56704e-07
4.92504e-08
5.35642e-08
7.43912e-08
8.2616e-07
1.01376e-06
2.08422e-08
2.46911e-09
1.38492e-09
9.68481e-09
8.7809e-08
2.09012e-08
3.63581e-10
3.61438e-10
1.23485e-08
5.52351e-09
7.41925e-10
1.02485e-09
1.82412e-07
8.85311e-10
4.63259e-08
2.44189e-08
1.7848e-08
6.94665e-07
1.10829e-06
2.91269e-08
8.69365e-09
2.46451e-09
8.02949e-10
4.43116e-10
4.31135e-10
4.22898e-10
3.64961e-10
3.64801e-10
3.80964e-10
6.76868e-10
9.28549e-10
8.95945e-10
8.87773e-10
8.8612e-10
7.94603e-09
7.07821e-09
1.11792e-07
8.63543e-07
2.40114e-08
3.89693e-09
2.43777e-09
1.33975e-09
6.28635e-10
5.77782e-10
5.56226e-10
4.34498e-10
3.43146e-10
4.18655e-10
5.27585e-10
8.42814e-10
1.04488e-09
1.08725e-09
8.90019e-10
3.4374e-09
6.56835e-09
1.67603e-08
1.77227e-07
7.47757e-09
2.99492e-09
1.16162e-09
7.03756e-10
6.54589e-10
5.40044e-10
4.16726e-10
3.35474e-10
3.10017e-10
3.2659e-10
4.06529e-10
5.46726e-10
7.22188e-10
8.30121e-10
9.24699e-10
2.72854e-09
5.09655e-09
3.18887e-09
5.7218e-08
1.28925e-09
6.17331e-10
3.34894e-10
2.72609e-10
2.39315e-10
1.95484e-10
1.6501e-10
1.48053e-10
1.71206e-10
2.27054e-10
3.24876e-10
4.70745e-10
6.53479e-10
8.54396e-10
9.95856e-10
1.91036e-09
2.92162e-09
2.99901e-09
2.96405e-08
2.07759e-10
1.15423e-10
9.03701e-11
7.63362e-11
6.53461e-11
5.74931e-11
6.16152e-11
7.69464e-11
1.12264e-10
1.76609e-10
2.81872e-10
4.35097e-10
6.40646e-10
8.87283e-10
1.12702e-09
1.8044e-09
1.88585e-09
2.2155e-09
3.15553e-08
3.41963e-11
2.5449e-11
2.17295e-11
2.03769e-11
2.15172e-11
2.58889e-11
3.44792e-11
5.28591e-11
9.05382e-11
1.65267e-10
3.00204e-10
4.73102e-10
6.77699e-10
8.94508e-10
1.37529e-09
1.94982e-09
1.88693e-09
2.15603e-09
3.88699e-08
6.32367e-12
6.41836e-12
7.26989e-12
9.00282e-12
1.21044e-11
1.67698e-11
2.55648e-11
4.27055e-11
8.03052e-11
1.65662e-10
3.52682e-10
6.36059e-10
9.05715e-10
1.06288e-09
1.72756e-09
2.04822e-09
1.92747e-09
4.22277e-09
4.06007e-08
2.42826e-12
3.22392e-12
4.5479e-12
6.70337e-12
1.04329e-11
1.63638e-11
2.60996e-11
4.32523e-11
7.99738e-11
1.63256e-10
4.23908e-10
8.15592e-10
1.24597e-09
1.59256e-09
1.99076e-09
2.08222e-09
2.04015e-09
1.04077e-08
3.88263e-08
1.67349e-12
2.6095e-12
4.08886e-12
6.69039e-12
1.12904e-11
1.8806e-11
3.07196e-11
4.89495e-11
8.40239e-11
1.58414e-10
5.16284e-10
1.06619e-09
1.57315e-09
1.92648e-09
2.05404e-09
2.02557e-09
2.24249e-09
1.22722e-08
2.19438e-08
1.41559e-12
2.36298e-12
3.97832e-12
6.99876e-12
1.26117e-11
2.19947e-11
3.61463e-11
5.6272e-11
9.06381e-11
1.79034e-10
6.86227e-10
1.41279e-09
1.9417e-09
2.04162e-09
1.72746e-09
1.65032e-09
1.9959e-09
7.97362e-09
1.08684e-08
1.19143e-12
2.04428e-12
3.74852e-12
7.05728e-12
1.33644e-11
2.45697e-11
4.13517e-11
6.52209e-11
1.01931e-10
2.19791e-10
9.26784e-10
1.93362e-09
2.44917e-09
2.03786e-09
1.46315e-09
1.46323e-09
1.46318e-09
1.46363e-09
9.48679e-09
8.801e-13
1.65772e-12
3.2465e-12
6.61255e-12
1.32559e-11
2.58319e-11
4.54711e-11
7.42009e-11
1.15628e-10
2.40979e-10
1.02989e-09
2.6072e-09
4.05843e-09
5.07576e-09
1.4632e-09
1.47133e-09
1.46326e-09
1.9327e-08
8.97971e-09
5.66138e-13
1.16998e-12
2.53096e-12
5.63783e-12
1.22122e-11
2.53461e-11
4.69589e-11
7.89573e-11
1.22754e-10
2.26426e-10
8.91677e-10
3.29466e-09
6.23776e-09
1.07679e-08
1.95392e-08
1.06829e-08
3.63876e-08
5.03389e-08
8.14766e-09
3.22229e-13
7.21089e-13
1.74374e-12
4.22918e-12
1.00515e-11
2.20449e-11
4.43627e-11
7.82201e-11
1.26035e-10
2.28044e-10
1.12983e-09
5.65759e-09
8.50613e-09
8.81204e-09
2.91959e-08
5.77709e-08
6.30871e-08
5.18221e-08
5.75399e-09
1.34588e-13
3.5406e-13
9.69963e-13
2.63703e-12
6.83808e-12
1.67027e-11
3.65607e-11
7.02543e-11
1.2407e-10
2.33065e-10
1.12416e-09
7.49174e-09
1.80297e-08
1.85124e-08
1.72169e-08
4.58795e-08
6.33906e-08
3.03282e-08
4.84017e-09
4.62244e-14
1.29293e-13
3.9765e-13
1.24261e-12
3.74616e-12
1.03617e-11
2.58676e-11
5.54682e-11
1.06177e-10
1.87395e-10
4.00205e-10
4.2442e-09
2.3549e-08
4.01278e-08
4.01213e-08
2.84255e-08
4.97763e-08
1.26951e-08
4.78797e-09
8.64108e-15
2.9186e-14
1.04406e-13
3.97229e-13
1.45866e-12
4.86786e-12
1.3897e-11
3.54313e-11
7.66582e-11
1.41597e-10
2.36943e-10
6.47516e-10
1.0592e-08
3.5021e-08
6.72576e-08
4.90352e-08
1.76559e-08
4.79602e-09
4.789e-09
1.02272e-15
3.00207e-15
1.22385e-14
5.8483e-14
2.87217e-13
1.34114e-12
5.03369e-12
1.5854e-11
4.17588e-11
9.33779e-11
1.78109e-10
2.75355e-10
4.09436e-10
1.52998e-08
4.71761e-08
7.32016e-08
2.36409e-08
4.80957e-09
5.18331e-08
5.84384e-17
1.56775e-16
7.19921e-16
4.37627e-15
3.04456e-14
1.95658e-13
1.05164e-12
4.49783e-12
1.52634e-11
4.25231e-11
9.76041e-11
1.87768e-10
2.73603e-10
1.09024e-10
1.05019e-08
6.00354e-08
3.21369e-08
5.86462e-09
6.93425e-08
2.51034e-18
4.02169e-18
1.27541e-17
9.33783e-17
9.41725e-16
9.60244e-15
8.60088e-14
5.5311e-13
2.53184e-12
9.05598e-12
2.55247e-11
5.57837e-11
1.0326e-10
1.0816e-10
-1.27488e-29
3.04773e-19
6.6434e-08
4.15501e-08
1.08679e-07
)
;

boundaryField
{
    leftWall
    {
        type            zeroGradient;
    }
    rightWall
    {
        type            zeroGradient;
    }
    lowerWall
    {
        type            zeroGradient;
    }
    atmosphere
    {
        type            inletOutlet;
        inletValue      uniform 0;
        value           nonuniform List<scalar> 
46
(
6.00914e-10
5.1726e-10
8.18028e-10
4.40256e-10
9.34569e-11
2.11272e-11
6.79869e-12
1.36066e-12
1.01917e-13
4.50152e-15
3.78765e-16
2.13904e-16
1.63432e-16
8.99305e-17
3.41487e-17
9.20595e-18
2.54724e-18
2.68968e-18
6.30223e-18
1.10381e-17
5.63541e-18
2.11954e-18
0
0
0
0
0
0
0
0
0
0
0
0
0
0
0
0
0
0
0
0
0
6.6434e-08
4.15501e-08
1.08679e-07
)
;
    }
    defaultFaces
    {
        type            empty;
    }
}


// ************************************************************************* //
