/*--------------------------------*- C++ -*----------------------------------*\
| =========                 |                                                 |
| \\      /  F ield         | OpenFOAM: The Open Source CFD Toolbox           |
|  \\    /   O peration     | Version:  2312                                  |
|   \\  /    A nd           | Website:  www.openfoam.com                      |
|    \\/     M anipulation  |                                                 |
\*---------------------------------------------------------------------------*/
FoamFile
{
    version     2.0;
    format      ascii;
    arch        "LSB;label=32;scalar=64";
    class       volScalarField;
    location    "3.4";
    object      alphas;
}
// * * * * * * * * * * * * * * * * * * * * * * * * * * * * * * * * * * * * * //

dimensions      [0 0 0 0 0 0 0];

internalField   nonuniform List<scalar> 
2268
(
2
2
2
2
2
2
2
2
2
2
2
2
2
2
2
2
2
2
2
2
1.99997
1.99995
1.99995
2
2
2
2
2
2
2
2
2
2
2
2
2
2
2
2
2
2
2
2
2
1.99998
1.99998
2
2
2
2
2
2
2
2
2
2
2
2
2
2
2
2
2
2
2
2
2
2
2
2
2
2
2
2
2
2
2
2
2
2
2
2
2
2
2
2
2
2
2
2
2
2
1.99849
1.99892
1.99981
2.00002
1.99998
1.99999
1.99999
2
2
2
2
2
2
2
2
2.00001
1.99773
1.99714
1.99605
1.99582
1.99478
1.99835
2.00114
1.44407
1.53475
1.65606
1.77513
1.87124
1.93591
1.96929
1.98829
1.99661
1.99864
1.99835
1.99838
1.99953
2
1.96264
1.87713
1.71203
1.49995
1.32615
1.18824
1.06204
0.934288
0.855081
0.0637125
0.111776
0.193949
0.311879
0.46371
0.630635
0.774716
0.918078
1.04219
1.11653
1.12384
1.09841
1.01101
0.864164
0.673355
0.494021
0.317473
0.289695
0.256451
0.208029
0.144531
0.161536
0.196298
0.00240254
0.005421
0.00513568
0.00220953
0.00111318
0.000805659
0.000568129
0.000682724
0.00100272
0.00924345
0.024482
0.0500586
0.0560984
0.0302358
0.0317978
0.089039
0.218786
0.210656
0.195809
0.0520536
0.0443107
0.0824616
0.163174
1.9434
1.94349
1.94998
1.96995
1.96272
1.94529
1.94062
1.9427
1.94488
1.94643
1.94746
1.9477
1.94737
1.95018
1.95204
1.9645
1.96332
1.95945
1.95855
1.9551
1.95644
1.96048
1.96287
1.96397
1.96495
1.96295
1.96259
1.94103
1.89186
1.87343
1.86196
1.84328
1.83808
1.83877
1.84787
1.8805
1.91099
1.92109
1.50047
1.73398
1.79228
1.87495
1.87974
1.837
1.76232
1.6066
1.46713
1.38573
1.25575
1.16516
1.21796
1.34046
1.41106
1.45272
1.46797
1.46851
1.4678
0.694765
0.970234
1.1631
1.2743
1.29247
1.13545
0.738023
0.637106
0.757565
0.733964
0.43988
0.205972
0.213412
0.289488
0.458965
0.556471
0.747813
0.753784
0.66036
0.47725
0.47577
0.425689
0.349659
0.299211
0.282507
0.294042
0.335735
0.614927
0.677874
0.327596
0.184858
0.185994
0.186095
0.209223
0.180016
0.196693
0.341083
0.165912
0.479414
0.109108
0.101822
0.275623
0.347792
0.34737
0.316379
0.218837
0.546316
0.67963
0.274655
0.178026
0.19048
0.196299
0.212464
0.218452
0.177967
0.154695
0.166849
0.461818
0.0468928
0.0588127
0.0593416
0.0571443
0.0567783
0.058379
0.0845519
0.390965
0.489062
0.203496
0.141821
0.194991
0.333043
0.218879
0.218697
0.21636
0.199974
0.190374
0.27889
0.0477125
0.0564363
0.065801
0.0707635
0.070092
0.070446
0.0720847
0.239461
0.315895
0.405928
0.331324
0.232902
0.347934
0.337706
0.217306
0.259422
0.519111
0.692494
0.00175054
0.00173823
0.00146517
0.00111349
0.00100876
0.00089958
0.000961005
0.00102848
0.000805544
0.000966492
0.0345628
0.0545322
0.0512773
0.0305964
0.0647077
0.205691
0.205684
0.181403
0.02995
0.0182495
0.0203906
0.0459669
0.182544
0.00187851
0.00178385
0.00377851
0.00610664
0.00327818
0.00129156
0.00129367
0.00129286
0.00107674
0.000520725
0.00588806
0.0471023
0.0535968
0.0490953
0.0315164
0.0667838
0.047492
0.0231403
0.0201144
0.0188825
0.0163102
0.0639455
0.170581
0.0391469
0.00700296
0.00760089
0.00607327
0.00463377
0.00241191
0.00226747
0.00206638
0.00288958
0.00305975
0.00544056
0.0170952
0.0320827
0.0281136
0.0350516
0.0394328
0.0380664
0.0915523
0.15124
0.316045
0.467643
0.589645
0.480713
0.612767
0.398411
0.253828
0.161492
0.0776027
0.106778
0.119258
0.0956919
0.134895
0.201641
0.0614815
0.0207783
0.0173923
0.0187995
0.0653408
0.165648
0.27683
0.699554
0.920391
1.01868
1.05155
1.06927
1.08347
1.08192
0.921958
0.697954
0.659068
0.671287
0.659334
0.589247
0.486313
0.390811
0.295202
0.227224
0.135499
0.112354
0.177208
0.245165
0.417205
1.0208
1.02115
1.00339
1.00371
1.00265
1.00207
1.00107
1.1307
1.04036
0.994805
1.02009
1.03971
1.07903
1.08291
1.03355
0.983304
0.945398
0.885736
0.683969
0.545528
0.526427
0.755833
1.07613
1.16515
1.14081
1.01037
1.00201
1.00091
0.998229
0.995921
1.05944
1.00168
1.00004
1.00093
1.00107
1.00325
1.00447
1.00172
1.00082
1.00103
1.00707
1.03437
1.07918
1.11653
1.14182
1.12202
1.07047
1.0457
1.02453
1.0124
1.00434
0.990732
0.979667
1.02129
1.00205
1.00036
1.0004
1.00034
1.00027
1.00043
1.0007
1.00076
1.00112
1.00085
1.00069
1.00397
1.01345
1.01894
1.01976
1.013
1.012
1.01317
1.04127
1.15725
1.40377
1.81159
1.00184
0.982738
1.00075
1.20483
1.50732
1.72285
1.84656
1.9105
1.93501
1.91613
1.89057
1.86824
1.82274
1.75442
1.66942
1.604
1.60375
1.72901
1.96084
2.26025
2.59108
2.86262
2.97318
1.00063
1.01923
1.67212
2.5223
2.87478
2.95669
2.98601
2.99646
2.99902
2.99681
2.99426
2.99254
2.99416
2.9971
2.9964
2.96872
2.93718
2.93626
2.93794
2.98546
2.99852
2.99932
3
1.00152
1.9269
2.82594
2.99784
2.9999
2.99987
2.99985
2.99987
2.99999
2.99995
2.99988
2.99999
2.99999
2.99999
2.99999
2.99755
2.97425
2.9659
2.99761
3
2.99999
2.99993
2.99992
1.72095
2.82396
2.96452
2.99963
3
3
3
3
3
3
3
3
2.99998
2.99996
2.99996
2.99999
2.99998
2.99999
2.99999
2.99999
3
2.9999
2.99987
2.95892
2.98961
2.99949
2.99996
2.99999
3
3
3
3
3
3
3
2.99999
2.99999
2.99999
2.99999
2.99998
2.99996
2.99996
2.99996
3
3
2.99999
3
3
2.99995
2.99999
3
3
3
3
2.99997
2.99996
2.99998
3
3
3
3
3
3
2.99999
2.99995
2.99997
2.99999
2.99999
2.9999
3
2.99999
2.99997
3
3
3
2.99998
2.99995
2.99995
2.99996
2.99997
2.99998
2.99999
3
2.99995
2.99986
2.99985
2.99985
2.99988
2.99995
2.99998
2.99994
2.99988
3
3
3
3
2.99999
2.99998
2.99998
2.99999
2.9999
2.9998
2.9998
2.9998
2.9998
2.9998
2.9998
2.99984
2.9999
2.99994
2.99995
2.99996
2.99999
3
3
3
3
3
3
2.99999
2.99998
3
3
2.99983
2.9998
2.99983
2.99993
2.99992
2.9999
2.99993
2.99997
2.99999
3
3
3
3
3
3
3
3
3
3
3
3
3
2.99998
2.99996
2.99997
2.99999
3
3
3
3
3
3
3
3
3
3
3
3
3
3
3
3
3
3
3
3
3
3
3
3
3
3
3
3
3
3
3
3
3
3
3
3
3
3
3
3
3
3
3
3
3
3
3
3
3
3
3
3
3
3
3
3
3
3
3
3
3
3
3
3
3
3
3
3
3
3
3
3
3
3
3
3
3
3
3
3
3
3
3
3
3
3
3
3
3
3
3
3
3
3
3
3
3
3
3
3
3
3
3
3
3
3
3
3
3
3
3
3
3
3
3
3
3
3
3
3
3
3
3
3
3
3
3
3
3
3
3
3
3
3
3
3
3
3
3
3
3
3
3
3
3
3
3
3
3
3
3
3
3
3
3
3
3
3
3
3
3
3
3
3
3
3
3
3
3
3
3
3
3
3
3
3
3
3
3
3
3
3
3
3
3
3
3
3
3
3
3
3
3
3
3
3
3
3
3
3
3
3
3
3
3
3
3
3
3
3
3
3
3
3
3
3
3
3
3
3
3
3
3
3
3
3
3
3
3
3
3
3
3
3
3
3
3
3
3
3
3
3
3
3
3
3
3
3
3
3
3
3
3
3
3
3
3
3
3
3
3
3
3
3
3
3
3
3
3
3
3
3
3
3
3
3
3
3
3
3
3
3
3
3
3
3
3
3
3
3
3
3
3
3
3
3
3
3
3
3
3
3
3
3
3
3
3
3
3
3
3
3
3
3
3
3
3
3
3
3
3
3
3
3
3
3
3
3
3
3
3
3
3
3
3
3
3
3
3
3
3
3
3
3
3
3
3
3
3
3
3
3
3
3
3
3
3
3
3
3
3
3
3
3
3
3
3
3
3
3
3
3
3
3
3
3
3
3
3
3
3
3
3
3
3
3
3
3
3
3
3
3
3
3
3
3
3
3
3
3
3
3
3
3
3
3
3
3
3
3
3
3
3
3
3
3
3
3
3
3
3
3
3
3
3
3
3
3
3
3
3
3
3
3
3
3
3
3
3
3
3
3
3
3
3
3
3
3
3
3
3
3
3
3
3
3
3
3
3
3
3
3
3
3
3
3
3
3
3
3
3
3
3
3
3
3
3
3
3
3
3
3
3
3
3
3
3
3
3
3
3
3
3
3
3
3
3
3
3
3
3
3
3
3
3
3
3
3
3
3
3
3
3
3
3
3
3
3
3
3
3
3
3
3
3
3
3
3
3
3
3
3
3
3
3
3
3
3
3
3
3
3
3
3
3
3
3
3
3
3
3
3
3
3
3
3
3
3
3
3
3
3
3
3
0.598952
0.605384
0.605036
0.515299
0.564831
0.606854
0.607015
0.606107
0.239012
0.227127
0.228346
0.245845
1.03132
0.998558
1.02508
1.06005
1.00084
1.00115
1.00141
1.00128
0.999269
1.00172
1.0044
1.00532
1.03006
1.14145
1.26803
1.38093
2.2174
2.48112
2.65618
2.77005
2.97956
2.97561
2.97526
2.98455
3
3
3
3
3
3
3
3
2.99996
2.99996
2.99998
2.99999
2.99996
2.99986
2.99986
2.99987
2.99987
2.99986
2.99986
2.99986
2.99987
2.99987
2.99994
2.99999
3
3
3
3
3
3
3
3
3
3
3
3
3
3
3
3
3
3
3
3
3
3
3
3
3
3
3
3
3
3
3
3
3
3
3
3
3
3
3
3
3
3
3
3
3
3
3
3
3
3
3
3
3
3
3
3
3
3
3
3
3
3
3
3
3
3
3
3
3
3
3
3
3
3
3
3
3
3
3
3
3
3
3
3
3
3
3
3
3
3
3
3
3
3
3
3
3
3
3
3
3
3
3
3
3
3
3
3
0.253219
0.0441575
0.0538962
0.141765
0.250107
0.227536
0.170461
0.154918
0.548514
0.746481
0.61175
0.279479
0.365207
0.495461
0.790305
1.02702
0.979979
1.00273
1.01301
0.439103
0.265771
0.40344
0.850756
1.00832
0.991864
0.89678
0.805004
0.985502
0.974526
0.683932
0.482989
0.891022
1.13126
1.10967
1.01535
1.01465
1.01115
1.01016
0.392408
0.651661
1.045
1.04835
1.01808
1.03643
1.23296
1.06596
0.998368
0.974956
0.975447
0.950274
1.13046
1.12414
1.00645
1.00861
1.00623
1.00412
1.00391
1.08967
1.08677
1.01909
1.00237
1.00203
1.00203
1.15617
1.04558
0.920601
0.920516
0.925071
1.05179
1.01667
1.00475
1.00682
1.03553
1.03363
1.00496
1.00176
1.00105
1.00162
1.00146
1.00109
1.001
1.00113
1.00142
1.08657
1.26571
1.17658
1.19706
1.13223
1.04609
1.00381
1.00296
1.04872
1.41504
1.02029
1.00642
1.00271
1.00069
0.999974
1.00004
1.00048
1.00052
1.00068
1.00128
1.00194
1.01544
1.08349
1.06567
1.03147
1.0032
1.00378
1.0397
1.52133
1.09681
1.01416
1.49993
1.55019
1.46766
1.50793
1.55516
1.60526
1.60165
1.58416
1.53571
1.47741
1.35159
1.23494
1.16846
1.12422
1.07467
1.06376
1.51623
1.19769
1.01921
2.88274
2.92877
2.89102
2.9072
2.9207
2.94296
2.9486
2.95541
2.95241
2.9322
2.88419
2.79983
2.7305
2.66331
2.36327
1.77729
2.30772
1.82916
1.1401
2.99347
2.99855
2.99983
2.99782
2.99997
3
3
3
3
3
3
3
2.99985
2.99873
2.99591
2.91854
2.96936
2.78973
2.63766
3
3
3
3
3
3
3
3
2.99991
2.99962
2.99953
2.99981
2.99994
2.99994
2.99851
2.99736
2.99967
2.99997
2.99984
3
3
3
2.99994
2.9999
2.99998
2.99999
2.99998
2.99977
2.99954
2.99941
2.9994
2.99957
2.99994
2.99993
3
3
3
3
2.99999
3
3
2.99993
2.99988
2.99987
2.99987
2.99989
2.99999
2.99999
2.99995
2.99962
2.99946
2.99945
2.99945
2.99969
2.99993
3
3
2.99996
2.9999
2.99994
2.99998
2.99998
2.99994
2.99991
2.99992
2.99994
3
3
3
2.99991
2.99954
2.9995
2.99965
2.99983
2.99999
3
2.99992
2.99987
2.99977
2.99979
2.99997
2.99999
2.99998
2.99996
2.99997
2.99999
2.99999
2.99998
2.99999
2.99995
2.99955
2.99991
2.99997
3
3
3
2.99993
2.99977
2.99977
2.99979
2.99997
3
2.99996
2.99993
2.99995
2.99999
2.9999
2.9998
2.99965
2.99962
2.99999
2.99999
2.99999
3
3
3
2.99986
2.99982
2.99988
2.99999
3
2.99998
2.99991
2.99994
3
2.99989
2.99935
2.99934
2.99972
2.99999
2.99994
2.99968
2.99966
3
3
2.99996
2.99996
2.99997
2.99997
2.99992
2.99989
2.9999
2.99994
3
2.99991
2.99935
2.99935
2.99953
2.99999
2.99975
2.99944
2.99944
3
3
2.99999
2.99989
2.99987
2.99987
2.99987
2.99989
2.99996
2.99999
3
3
2.99961
2.99935
2.99952
2.99999
2.99971
2.99944
2.99944
3
2.99999
2.99997
2.99995
2.99995
2.99996
2.99997
2.99999
2.99999
2.99999
2.99999
3
2.9999
2.99938
2.99974
2.99999
2.99992
2.99945
2.99948
3
3
3
3
3
3
3
3
3
3
3
3
3
2.9999
2.99998
2.99997
2.99983
2.99985
2.99963
3
3
3
3
3
3
3
3
3
3
3
3
3
3
3
2.99997
2.99979
2.99994
2.99994
3
3
3
3
3
3
3
3
3
3
3
3
3
3
3
2.99999
2.99991
2.99992
2.99969
3
3
3
3
3
3
3
3
3
3
3
3
3
3
3
3
3
2.99987
2.99961
3
3
3
3
3
3
3
3
3
3
3
3
3
3
3
3
3
2.99992
2.99961
3
3
3
3
3
3
3
3
3
3
3
3
3
3
3
3
3
3
2.99994
3
3
3
3
3
3
3
3
3
3
3
3
3
3
3
3
3
3
3
3
3
3
3
3
3
3
3
3
3
3
3
3
3
3
3
3
3
3
3
3
3
3
3
3
3
3
3
3
3
3
3
3
3
3
3
3
2.99999
3
3
3
3
3
3
3
3
3
3
3
3
3
3
3
3
3
3
2.99999
3
3
3
3
3
3
3
3
3
3
3
3
3
3
3
3
3
3
2.99999
3
3
3
3
3
3
3
3
3
3
3
3
3
3
2.99999
2.99999
3
3
3
3
3
3
3
3
3
3
3
3
3
3
3
3
3
2.99999
2.99999
2.99999
3
3
3
3
3
3
3
3
3
3
3
3
3
3
3
3
3
2.99999
2.99999
2.99999
2.99999
3
3
3
3
3
3
3
3
3
3
3
3
3
3
3
2.99999
2.99999
2.99999
3
3
3
3
3
3
3
3
3
3
3
3
3
3
3
3
3
3
3
3
3
3
3
3
3
3
3
3
3
3
3
3
3
3
3
3
3
3
3
3
3
3
3
3
3
3
3
3
3
3
3
3
3
3
3
3
3
3
3
3
3
3
3
3
3
3
3
3
3
3
3
3
3
3
3
3
3
3
3
3
3
3
3
3
3
3
3
3
3
3
3
3
3
3
3
3
3
3
3
3
3
3
3
3
3
3
3
3
3
3
3
3
3
3
3
3
3
3
3
3
3
3
3
3
3
3
3
3
3
3
3
3
3
3
3
3
3
3
3
3
3
3
3
3
3
3
3
3
3
3
3
3
3
)
;

boundaryField
{
    leftWall
    {
        type            calculated;
        value           nonuniform List<scalar> 
50
(
2
2
2
2
1.99849
1.44407
0.0637125
0.00240254
0.00175054
0.00187851
0.0391469
0.612767
1.08192
1.1307
1.05944
1.02129
1.00184
1.00063
1.00152
1.72095
2.95892
3
3
3
3
3
3
3
3
3
3
3
3
3
3
3
3
3
3
3
3
3
3
3
3
3
3
3
3
3
)
;
    }
    rightWall
    {
        type            calculated;
        value           nonuniform List<scalar> 
50
(
1.95855
1.92109
1.4678
0.66036
0.165912
0.166849
0.190374
0.692494
1.01301
1.01016
1.00391
1.00176
1.00642
1.01416
1.01921
1.1401
2.63766
2.99984
3
3
3
3
3
2.99966
2.99944
2.99944
2.99948
2.99963
2.99994
2.99969
2.99961
2.99961
2.99994
3
3
2.99999
2.99999
2.99999
3
3
2.99999
3
3
3
3
3
3
3
3
3
)
;
    }
    lowerWall
    {
        type            calculated;
        value           nonuniform List<scalar> 
62
(
2
2
2
2
2
2
2
2
2
2
2
2
2
2
2
2
2
2
2
2
1.99997
1.99995
1.99995
1.99995
1.99998
2
2
2.00114
0.855081
0.196298
0.163174
0.598952
0.605384
0.605036
0.515299
1.9434
1.9551
1.50047
0.694765
0.47725
0.479414
0.461818
0.27889
1.9434
1.94349
1.94998
1.96995
1.96272
1.94529
1.94062
1.9427
1.94488
1.94643
1.94746
1.9477
1.94737
1.95018
1.95204
1.9645
1.96332
1.95945
1.95855
)
;
    }
    atmosphere
    {
        type            calculated;
        value           nonuniform List<scalar> 
46
(
3
3
3
3
3
3
3
3
3
3
3
3
3
3
3
3
3
3
3
3
3
3
3
3
3
3
3
3
3
3
3
3
3
3
3
3
3
3
3
3
3
3
3
3
3
3
)
;
    }
    defaultFaces
    {
        type            empty;
    }
}


// ************************************************************************* //
