/*--------------------------------*- C++ -*----------------------------------*\
| =========                 |                                                 |
| \\      /  F ield         | OpenFOAM: The Open Source CFD Toolbox           |
|  \\    /   O peration     | Version:  2312                                  |
|   \\  /    A nd           | Website:  www.openfoam.com                      |
|    \\/     M anipulation  |                                                 |
\*---------------------------------------------------------------------------*/
FoamFile
{
    version     2.0;
    format      ascii;
    arch        "LSB;label=32;scalar=64";
    class       volScalarField;
    location    "3.4";
    object      alpha.water_0;
}
// * * * * * * * * * * * * * * * * * * * * * * * * * * * * * * * * * * * * * //

dimensions      [0 0 0 0 0 0 0];

internalField   nonuniform List<scalar> 
2268
(
3.7954e-07
1.88786e-07
1.29205e-08
8.4942e-10
3.24278e-10
2.38554e-10
1.36415e-10
8.48371e-11
5.79766e-11
4.3998e-11
3.9394e-11
3.97282e-11
4.41238e-11
5.2835e-11
6.64204e-11
8.55097e-11
1.24869e-10
1.94501e-10
2.90576e-10
4.95714e-10
8.60324e-10
1.22658e-09
1.39318e-09
3.7954e-07
2.88316e-07
3.86575e-08
4.97762e-09
4.99325e-10
2.98816e-10
1.91275e-10
1.2227e-10
8.37173e-11
6.90017e-11
5.88582e-11
5.66925e-11
6.76269e-11
8.06999e-11
1.03801e-10
1.36573e-10
1.92518e-10
3.18957e-10
5.50353e-10
9.01651e-10
1.63574e-09
2.16477e-09
1.69955e-09
2.08719e-07
4.55992e-08
1.81035e-08
7.40047e-10
1.38089e-10
2.00853e-10
2.33955e-10
2.34486e-10
2.06034e-10
1.68348e-10
1.13733e-10
1.10034e-10
1.37299e-10
1.34907e-10
1.42133e-10
3.13865e-10
2.93924e-10
2.96956e-10
4.24406e-10
7.92774e-10
1.8636e-09
2.87085e-09
1.42829e-09
1.11781e-20
1.94807e-11
1.51618e-09
2.98946e-10
7.8714e-11
9.23335e-11
1.20201e-10
1.70422e-10
3.1038e-10
3.64114e-10
3.53373e-10
2.55631e-10
1.45019e-10
9.60258e-11
8.05896e-11
1.19528e-10
9.59077e-11
5.58192e-11
4.50295e-11
7.9662e-11
1.96532e-10
3.05973e-10
1.9321e-10
9.18093e-20
1.47519e-19
-1.67869e-19
5.2957e-20
1.85433e-20
1.44932e-20
9.67934e-21
1.96958e-19
2.66355e-09
5.49017e-10
1.51892e-11
1.32296e-11
4.95958e-12
1.56318e-13
1.55797e-13
2.50681e-22
2.20193e-22
2.50681e-22
2.45538e-22
3.45446e-22
6.15013e-22
1.79368e-19
0.00453787
0.249017
0.205212
0.147807
0.0939201
0.051053
0.0233771
0.0104812
0.00360741
0.000932475
0.000361072
2.44468e-05
1.57279e-10
1.00394e-12
0.00303615
0.0294348
0.0715223
0.158952
0.265825
0.359335
0.419924
0.48272
0.551632
0.588139
0.952811
0.9263
0.880893
0.818762
0.738676
0.651312
0.581719
0.514852
0.459507
0.433462
0.436679
0.457749
0.511623
0.591399
0.688646
0.77439
0.851234
0.8541
0.847243
0.873518
0.926059
0.921028
0.90302
0.99848
0.996586
0.99728
0.998921
0.999512
0.999566
0.999453
0.999347
0.999143
0.993434
0.986364
0.961205
0.954944
0.979666
0.979659
0.943443
0.836898
0.837198
0.837978
0.968748
0.978562
0.962397
0.932186
0.0149951
0.0163446
0.0143793
0.0067639
0.0105167
0.0176373
0.0185434
0.0169994
0.0154653
0.0140958
0.0130549
0.0126553
0.0119859
0.00918988
0.00731864
0.00381991
0.00504292
0.00638967
0.00684106
0.00893531
0.00823534
0.0067653
0.00676369
0.00676388
0.0068111
0.00674084
0.00543625
0.00496941
0.00338898
0.00338698
0.00339663
0.00339008
0.00339628
0.00338938
0.00350591
0.00351282
0.00352393
0.00353461
0.235337
0.0209105
0.00676255
0.00676223
0.00676367
0.00676389
0.0197269
0.0366089
0.0390701
0.0607257
0.133671
0.189768
0.156734
0.0854226
0.0444075
0.0238607
0.022068
0.0262916
0.0300604
0.517538
0.269952
0.160424
0.123245
0.14409
0.303622
0.549951
0.559452
0.370272
0.387939
0.647032
0.854321
0.846671
0.772574
0.641027
0.55046
0.383502
0.378849
0.451863
0.529096
0.531349
0.584593
0.67156
0.73334
0.754727
0.755485
0.677656
0.429221
0.409767
0.774837
0.895907
0.896024
0.895972
0.889921
0.891263
0.827436
0.697642
0.864489
0.528929
0.888308
0.902317
0.727688
0.661342
0.66536
0.703617
0.801863
0.475037
0.408694
0.834671
0.896046
0.896136
0.895888
0.892529
0.892413
0.892378
0.892347
0.892312
0.547477
0.965309
0.964333
0.963716
0.964904
0.965949
0.965924
0.956274
0.656562
0.597439
0.838312
0.892306
0.896154
0.855058
0.891411
0.892375
0.892344
0.892312
0.892287
0.737997
0.965905
0.965903
0.965861
0.965827
0.965874
0.965899
0.965825
0.902318
0.708274
0.639694
0.714268
0.886022
0.848792
0.851436
0.892331
0.834306
0.558274
0.351657
0.999364
0.99937
0.999452
0.999565
0.999566
0.999565
0.999565
0.999565
0.999565
0.999524
0.970631
0.947639
0.949083
0.979662
0.964457
0.839946
0.832219
0.843058
0.978899
0.99129
0.991292
0.984657
0.922176
0.999321
0.999353
0.998783
0.997915
0.998875
0.999566
0.999565
0.999565
0.999565
0.999565
0.996018
0.957597
0.947854
0.953695
0.984126
0.960559
0.967138
0.988765
0.991241
0.991291
0.991291
0.981894
0.942255
0.959334
0.99367
0.997435
0.997921
0.998368
0.99894
0.999054
0.99914
0.99841
0.997643
0.997317
0.988416
0.9731
0.976047
0.984357
0.984359
0.984352
0.968775
0.9177
0.761885
0.597838
0.505971
0.63199
0.500889
0.649048
0.820297
0.894893
0.944772
0.949306
0.945937
0.958164
0.957145
0.931568
0.972991
0.991759
0.991388
0.991256
0.979341
0.943357
0.83118
0.369871
0.151339
0.0569698
0.000527977
3.4856e-05
3.55338e-05
0.0455993
0.154669
0.321497
0.400078
0.423326
0.444689
0.524061
0.628952
0.723157
0.821651
0.903308
0.949451
0.959739
0.943389
0.917918
0.781981
0.17022
3.40788e-08
0.000255147
6.36267e-05
6.99645e-05
0.000131918
0.000381607
0.00152657
0.00152646
0.0100645
0.00167802
0.000914255
0.00455705
0.0204755
0.0371328
0.054708
0.096276
0.220732
0.434713
0.593585
0.626296
0.436804
0.107064
3.41051e-08
3.82999e-08
8.2229e-05
0.000511854
0.000818555
0.00173318
0.00325323
0.00152661
0.00152641
0.00178165
7.78332e-06
1.06497e-06
-3.12529e-06
-9.49556e-07
-1.71624e-07
4.0432e-05
1.41485e-05
1.37952e-05
0.00147173
0.00991664
0.0138581
0.00721537
4.13258e-08
4.56881e-08
5.09911e-05
0.000403474
0.000524715
0.000964386
0.00838918
0.0209998
0.00309358
0.0026922
0.000395453
0.000244821
0.000303766
0.000437838
0.000251116
8.34205e-05
4.22398e-05
0.000176942
0.000459214
0.000619251
0.000451963
0.000158546
9.04723e-05
8.07516e-05
3.01213e-05
0.000447489
0.00082426
0.00190656
0.00748771
0.0188828
0.0209984
0.00964968
0.0253927
0.000876368
0.000129985
0.000903479
0.000905403
0.000353348
2.3472e-05
2.32029e-05
0.000843772
0.00623959
0.00744139
0.00744118
0.00744033
0.00717395
0.00458739
0.00270486
0.00279773
0.00534547
0.0108825
0.0145018
0.0128632
0.00924837
0.0102482
0.0302532
0.0160651
0.000113051
0.000589656
0.000838229
0.000827451
0.000795821
0.000386894
0.000911977
0.00175734
0.00257709
0.00237446
0.00114725
0.00084322
0.005576
0.0209523
0.0209508
0.0209538
0.00942979
2.4064e-05
2.35598e-10
1.36148e-17
0.0103872
0.0301724
0.0211557
0.00040306
1.99449e-05
2.20255e-05
4.10199e-05
3.86783e-05
2.02366e-06
2.27184e-05
6.78041e-05
1.42274e-07
2.96473e-06
2.05683e-06
2.40952e-06
0.000194308
0.00723818
0.0137202
0.0031421
3.28466e-07
8.69618e-07
1.8942e-05
2.85161e-05
0.00811369
0.0255862
0.00752975
6.20901e-05
1.26705e-07
1.33611e-07
1.24077e-07
1.32916e-07
1.33626e-07
1.36635e-07
1.3688e-07
1.33191e-07
7.70965e-06
1.29676e-05
1.23061e-05
7.74112e-06
1.93999e-08
2.45611e-13
2.83671e-13
1.64255e-09
8.71119e-07
3.25172e-05
4.76269e-05
0.0022437
0.00156088
6.76034e-06
7.36297e-06
1.35795e-06
1.73255e-07
2.69436e-07
3.07763e-07
3.49365e-07
2.86685e-07
1.39157e-07
1.38253e-07
1.74592e-06
4.16225e-06
4.20517e-06
3.22467e-06
1.9986e-06
8.21428e-08
2.08753e-07
4.6175e-10
1.42319e-10
2.67789e-10
6.41994e-07
1.62809e-06
1.74071e-06
1.80793e-05
7.84047e-07
1.78147e-07
1.20219e-07
1.94398e-07
4.80872e-07
1.079e-06
1.07299e-06
9.06849e-07
1.46882e-07
7.71136e-08
4.68905e-08
3.82645e-08
4.69016e-08
8.7304e-08
1.10924e-06
2.78105e-06
2.3723e-06
1.66831e-06
2.30775e-07
1.94046e-07
2.33369e-07
4.60399e-06
7.87162e-06
9.59179e-07
1.76746e-07
7.98417e-08
7.08388e-07
9.55573e-07
8.39358e-07
6.18807e-07
5.96549e-07
5.56329e-08
4.6893e-08
4.31554e-08
8.30449e-06
3.00682e-05
3.3536e-05
3.53675e-05
3.55292e-05
1.17681e-05
4.8498e-06
1.13467e-06
5.26373e-07
2.34604e-07
5.96077e-07
5.71071e-07
1.88887e-07
7.03138e-08
2.7804e-07
3.47468e-07
8.35362e-09
3.20365e-06
1.795e-05
1.85293e-05
1.74552e-05
1.7577e-05
3.64339e-05
3.98438e-05
3.98532e-05
2.76573e-05
9.40075e-06
4.86901e-06
3.81464e-07
2.90265e-11
2.64208e-11
5.94657e-12
9.2226e-08
8.71741e-08
4.33803e-08
1.80201e-08
5.13e-08
1.8043e-07
1.95141e-08
7.7692e-09
1.71881e-05
2.15759e-05
1.76174e-05
5.94361e-06
1.26111e-05
2.16451e-05
1.69361e-05
5.07042e-06
2.20449e-10
2.15362e-10
2.20182e-10
4.25219e-10
3.34153e-10
2.70881e-10
4.13325e-11
1.35522e-08
1.042e-08
4.80774e-09
3.88822e-09
2.02448e-08
4.07045e-09
3.18502e-09
1.86753e-06
5.25801e-06
4.03628e-06
7.6509e-07
2.98629e-09
1.92637e-07
4.56491e-08
9.6834e-10
9.69329e-10
1.74191e-09
2.08796e-09
1.78426e-09
1.31826e-09
9.23908e-10
5.26553e-10
3.75404e-11
1.14163e-08
7.13465e-09
4.19506e-09
3.25688e-09
2.44473e-09
2.43704e-09
1.0818e-07
4.78028e-07
1.48207e-09
1.4813e-09
1.48216e-09
2.97583e-09
1.94522e-09
1.96976e-09
2.59023e-09
3.51369e-09
3.58585e-09
3.24375e-09
2.37672e-09
1.56032e-09
1.10975e-09
8.14949e-10
6.41884e-10
1.16185e-08
5.6323e-09
3.75029e-09
2.7725e-09
2.91767e-09
3.5928e-09
5.15144e-08
3.4617e-09
2.08706e-09
1.48053e-09
1.55075e-09
2.15363e-09
1.9493e-09
1.67005e-09
1.51655e-09
1.48464e-09
1.61797e-09
1.61959e-09
1.42869e-09
1.12304e-09
8.02547e-10
6.29773e-10
6.08611e-10
1.32415e-08
4.58613e-09
3.01016e-09
1.91871e-09
2.12512e-09
3.13351e-09
2.45952e-09
1.79754e-09
1.3734e-09
1.03734e-09
9.71583e-10
9.78919e-10
8.61534e-10
7.31018e-10
6.74011e-10
7.02244e-10
7.85131e-10
8.23382e-10
7.95972e-10
6.77818e-10
4.50465e-10
3.34375e-10
4.21886e-10
1.42908e-08
3.46267e-09
2.12945e-09
1.11846e-09
1.03433e-09
1.40009e-09
9.20924e-10
8.16727e-10
6.03625e-10
4.65935e-10
4.19179e-10
3.85677e-10
3.41007e-10
3.10768e-10
3.10738e-10
3.38175e-10
3.75908e-10
3.74015e-10
3.60718e-10
3.17626e-10
2.19144e-10
1.91891e-10
2.13991e-10
2.0441e-08
2.30543e-09
1.43274e-09
6.65104e-10
4.37507e-10
4.64573e-10
3.21477e-10
2.62819e-10
2.05513e-10
1.78753e-10
1.61258e-10
1.45197e-10
1.3232e-10
1.27218e-10
1.30012e-10
1.40659e-10
1.51398e-10
1.55519e-10
1.52971e-10
1.39033e-10
1.09281e-10
9.35612e-11
1.19145e-10
4.13405e-08
1.64386e-09
9.9925e-10
4.69515e-10
2.40484e-10
1.7844e-10
1.31393e-10
1.05099e-10
8.65759e-11
7.41917e-11
6.33905e-11
5.49304e-11
4.95874e-11
4.75479e-11
4.8045e-11
5.09388e-11
5.3258e-11
5.43131e-11
5.43027e-11
5.16093e-11
4.67371e-11
4.93362e-11
5.68235e-11
5.34004e-08
9.22335e-10
7.07811e-10
3.62267e-10
1.99003e-10
1.40293e-10
1.0955e-10
8.67028e-11
6.65422e-11
4.88728e-11
3.56861e-11
2.61479e-11
2.03176e-11
1.70937e-11
1.61183e-11
1.62127e-11
1.66977e-11
1.72276e-11
1.75208e-11
1.79805e-11
1.95296e-11
2.04287e-11
2.95258e-11
5.36463e-08
9.0156e-10
3.90622e-10
2.86585e-10
2.14467e-10
1.78381e-10
1.52607e-10
1.22367e-10
8.80695e-11
6.14392e-11
4.23913e-11
2.77027e-11
1.70165e-11
1.03375e-11
6.88464e-12
5.39889e-12
4.84146e-12
4.88399e-12
5.14554e-12
5.88312e-12
6.36683e-12
9.56886e-12
1.21474e-11
6.5837e-08
1.26992e-09
2.16118e-10
2.79243e-10
2.55332e-10
2.45568e-10
2.25991e-10
1.87245e-10
1.33458e-10
9.73453e-11
7.13644e-11
4.65681e-11
2.69398e-11
1.38734e-11
6.58703e-12
3.08706e-12
1.78433e-12
1.34262e-12
1.40008e-12
1.76105e-12
2.4354e-12
3.05303e-12
5.49122e-12
7.89865e-08
3.60974e-09
2.04385e-10
3.27115e-10
3.54967e-10
3.51395e-10
3.30239e-10
2.79301e-10
1.88912e-10
1.51873e-10
1.1554e-10
7.73519e-11
4.55189e-11
2.33398e-11
1.04107e-11
4.01759e-12
1.47598e-12
6.21538e-13
4.00613e-13
5.03868e-13
6.5981e-13
1.29225e-12
1.93831e-12
1.1247e-07
9.02948e-09
2.00782e-10
3.65978e-10
4.28685e-10
4.35966e-10
4.36378e-10
4.03005e-10
2.43421e-10
2.09602e-10
1.66096e-10
1.15743e-10
7.0792e-11
3.74364e-11
1.69269e-11
6.61748e-12
2.17994e-12
6.56764e-13
2.10307e-13
1.43094e-13
2.23362e-13
3.49714e-13
7.54412e-13
1.15471e-07
1.56745e-08
2.00784e-10
3.20117e-10
3.00993e-10
2.83787e-10
2.83705e-10
4.22621e-10
2.86623e-10
2.59315e-10
2.16794e-10
1.56745e-10
9.92973e-11
5.4236e-11
2.54897e-11
1.03379e-11
3.4799e-12
1.00724e-12
2.36834e-13
6.57223e-14
5.35769e-14
1.301e-13
2.28769e-13
1.46712e-07
1.85322e-08
2.00797e-10
2.60689e-10
2.57475e-10
2.57261e-10
4.06856e-09
5.05932e-10
3.23815e-10
3.13285e-10
2.62082e-10
1.94456e-10
1.27082e-10
7.13071e-11
3.51091e-11
1.49104e-11
5.25357e-12
1.56068e-12
3.93235e-13
6.86959e-14
2.028e-14
2.97579e-14
7.60845e-14
1.60685e-07
2.44107e-08
2.008e-10
1.06274e-09
1.87719e-08
6.49312e-08
1.87944e-08
4.85403e-09
6.53175e-10
3.75204e-10
2.92752e-10
2.20398e-10
1.48018e-10
8.48177e-11
4.36561e-11
1.95858e-11
7.34095e-12
2.2401e-12
5.71258e-13
1.00103e-13
1.45522e-14
9.19627e-15
1.99721e-14
1.71309e-07
4.81474e-08
2.00814e-10
4.00217e-09
1.30251e-07
1.89539e-07
4.28956e-07
8.52537e-08
8.78164e-09
1.02319e-09
3.5165e-10
2.29785e-10
1.54382e-10
8.93938e-11
4.6649e-11
2.21028e-11
9.00704e-12
2.98872e-12
7.86768e-13
1.62983e-13
1.96424e-14
2.61225e-15
5.7509e-15
1.72009e-07
1.0341e-07
2.95089e-09
9.73844e-10
1.21611e-07
4.64606e-07
1.41924e-06
9.5304e-07
5.54962e-08
5.00814e-09
6.0909e-10
2.34203e-10
1.47866e-10
8.53765e-11
4.46725e-11
2.15401e-11
9.43435e-12
3.43583e-12
9.84332e-13
2.15392e-13
3.12852e-14
1.68667e-15
1.25445e-15
1.74122e-07
1.74041e-07
3.0545e-08
9.72718e-10
2.11527e-08
4.61047e-07
1.41895e-06
1.41924e-06
1.2015e-07
1.07347e-08
1.10564e-09
2.41372e-10
1.30431e-10
7.27365e-11
3.73816e-11
1.83542e-11
8.38572e-12
3.33736e-12
1.03405e-12
2.41962e-13
4.13329e-14
2.11189e-15
3.46566e-16
1.61922e-07
1.73858e-07
7.60146e-08
2.36184e-09
1.25396e-09
1.91632e-07
1.41403e-06
6.43114e-07
5.06283e-08
8.12987e-09
1.09433e-09
2.12244e-10
1.03169e-10
5.59895e-11
2.75128e-11
1.30237e-11
6.12627e-12
2.64742e-12
9.28474e-13
2.36423e-13
4.22814e-14
3.14931e-15
1.43051e-16
7.94927e-08
1.73714e-07
6.31989e-08
7.32552e-09
1.03678e-09
6.53949e-08
7.72847e-07
2.4657e-07
3.16789e-08
4.64424e-09
7.10998e-10
1.42701e-10
7.06691e-11
3.71962e-11
1.70647e-11
7.64212e-12
3.5927e-12
1.63554e-12
6.4055e-13
1.84505e-13
3.6454e-14
3.49186e-15
1.16994e-16
2.8766e-08
8.95842e-08
3.71434e-08
6.9579e-09
1.02446e-09
3.65711e-08
7.2543e-09
8.21906e-10
5.52934e-09
2.12327e-09
3.56158e-10
7.92098e-11
4.23322e-11
2.14255e-11
8.99434e-12
3.64254e-12
1.58956e-12
7.38299e-13
3.18208e-13
1.08083e-13
2.36321e-14
3.20777e-15
1.27932e-16
1.12745e-08
3.09043e-08
1.98773e-08
2.79034e-09
1.31746e-09
1.00134e-09
5.23933e-10
1.82634e-10
1.17217e-10
1.08358e-10
5.24652e-11
3.23178e-11
2.08966e-11
1.02087e-11
3.91864e-12
1.38394e-12
5.24497e-13
2.21821e-13
1.05159e-13
4.51137e-14
1.26992e-14
1.73286e-15
1.17229e-16
6.60682e-09
1.05182e-08
3.74962e-09
3.25195e-09
3.51499e-09
3.2497e-09
1.83695e-09
6.57427e-10
2.16458e-10
7.21077e-11
2.18619e-11
1.28269e-11
8.34896e-12
3.9917e-12
1.45088e-12
4.25699e-13
1.25007e-13
4.33009e-14
2.04544e-14
1.29104e-14
4.27829e-15
8.2036e-16
8.81059e-17
1.68449e-08
7.50401e-09
2.12543e-08
8.71049e-09
5.58294e-09
3.18101e-09
1.2508e-09
3.12051e-10
6.67765e-11
1.52223e-11
4.76798e-12
3.43696e-12
2.36192e-12
1.14325e-12
3.83128e-13
9.48555e-14
1.98657e-14
4.66637e-15
2.3065e-15
2.285e-15
1.09084e-15
3.32984e-16
5.48279e-17
2.7287e-07
1.68583e-07
3.65667e-08
8.46515e-09
3.52684e-09
1.32381e-09
3.15736e-10
3.47208e-11
2.33314e-12
2.02302e-13
4.58338e-13
4.80723e-13
3.58528e-13
1.74841e-13
5.57236e-14
1.15572e-14
1.70449e-15
2.59042e-16
1.48224e-16
2.5923e-16
2.52939e-16
1.09404e-16
2.64927e-17
0.516535
0.494607
0.494762
0.519499
0.589851
0.494776
0.494387
0.493994
0.81543
0.830153
0.83067
0.820609
0.0414828
0.0627873
0.066878
0.0519945
0.000189834
-2.07383e-09
-1.67259e-08
1.80658e-11
0.000953646
-1.87294e-20
1.97745e-06
2.75999e-05
0.0137668
0.00947222
0.01005
0.00937245
0.0209998
0.020998
0.020999
0.0186417
0.00720022
0.00882884
0.00928311
0.00595083
1.7369e-16
1.35493e-17
3.03489e-17
3.26321e-16
-3.71988e-12
3.72006e-12
1.35493e-17
1.53644e-08
6.87531e-06
9.85721e-08
5.63176e-07
3.83548e-07
6.47523e-06
7.86373e-06
7.53423e-06
1.01062e-06
2.85262e-06
6.31297e-06
7.01875e-06
4.05379e-06
2.68352e-07
2.29144e-07
1.0249e-06
9.6279e-07
1.95817e-09
9.73691e-09
3.69732e-08
4.62229e-07
1.72498e-08
5.72007e-08
1.41665e-07
1.85151e-07
2.97318e-08
8.34374e-08
1.41487e-07
1.61557e-07
6.23076e-10
6.16971e-10
1.51712e-09
1.36825e-09
6.22116e-10
8.13665e-10
3.08147e-09
8.53973e-09
6.06473e-10
1.15779e-09
2.31491e-09
5.39035e-09
3.27162e-10
4.25001e-10
6.22495e-10
1.15986e-09
1.45891e-10
1.83423e-10
3.19338e-10
3.67453e-10
7.8643e-11
9.8916e-11
1.14857e-10
1.71702e-10
3.86699e-11
4.46421e-11
6.57192e-11
7.26249e-11
1.87423e-11
2.43526e-11
2.7354e-11
3.86333e-11
7.72171e-12
9.25275e-12
1.43895e-11
1.54555e-11
3.23891e-12
4.40148e-12
4.99801e-12
7.26405e-12
1.21722e-12
1.42534e-12
2.27003e-12
2.52099e-12
4.4408e-13
6.07319e-13
7.08727e-13
1.03627e-12
1.3536e-13
1.75342e-13
2.83069e-13
3.18509e-13
4.37622e-14
6.64608e-14
7.91135e-14
1.18231e-13
1.19864e-14
1.62133e-14
2.7008e-14
3.21647e-14
3.46721e-15
5.0936e-15
6.7086e-15
1.03157e-14
6.79637e-16
1.02646e-15
1.88783e-15
2.41244e-15
1.67679e-16
2.73624e-16
4.13812e-16
6.95059e-16
3.28643e-17
5.30112e-17
1.1169e-16
1.53973e-16
7.74784e-18
1.15212e-17
1.96436e-17
3.53156e-17
1.84369e-18
1.9269e-18
3.84775e-18
5.84988e-18
1.04564e-18
3.8626e-19
5.339e-19
1.11993e-18
9.9973e-19
1.26454e-19
1.00704e-19
1.8075e-19
9.35153e-19
6.98129e-20
2.10725e-20
2.64899e-20
0.733943
0.963264
0.9659
0.935741
0.870515
0.888196
0.923202
0.938891
0.694356
0.483051
0.564647
0.807746
0.833863
0.701085
0.413118
0.154281
0.0571343
0.0127316
0.000661047
0.594965
0.768274
0.70515
0.322921
0.174195
0.207298
0.349054
0.530377
0.257425
0.145384
0.372409
0.577846
0.293029
0.0696893
0.000384093
9.46791e-05
9.73037e-05
0.00022091
0.000665435
0.713143
0.485889
0.0876257
8.21133e-13
6.17359e-13
-7.18974e-24
0.0372522
0.301021
0.247083
0.0485668
0.0484023
0.0726709
0.00781898
0.000212178
0.00138627
0.00385334
0.003845
0.00361656
0.00403832
0.0169431
5.35602e-15
7.37589e-15
7.84957e-11
7.4236e-06
1.73139e-19
0.0205437
0.317453
0.452411
0.452381
0.354351
0.0358654
0.000211517
0.000211744
0.00117048
0.00295143
0.0061637
0.00616365
0.00616443
2.2897e-06
2.79474e-05
0.00012238
0.000225316
0.000266306
0.000192789
6.17125e-05
6.15147e-05
0.0618667
0.196848
0.172587
0.0484648
0.00405102
0.00026695
0.000319483
0.00029403
0.00241553
0.00589979
0.0038246
0.00011518
0.000140098
0.000602543
0.000584442
0.00045364
0.000521096
0.000489184
0.00022101
-2.29873e-07
-2.47559e-09
0.000111266
0.0102022
0.00450012
0.000517652
0.000219929
0.000270214
0.00166182
0.00148544
0.00144198
0.00439834
0.00231768
0.00407479
0.00457444
0.00407419
0.0033677
0.00309989
0.00233327
0.0013229
0.00109253
0.000930136
0.000745541
0.000777957
0.000389913
7.31017e-05
7.31894e-05
0.00279219
0.000422078
9.3263e-06
0.00705847
0.00365647
0.00502806
0.00508168
0.00498407
0.00342737
0.0030337
0.00224179
0.00155101
0.00137843
0.00137587
0.00129784
0.00127497
0.000941517
9.10112e-05
0.000588907
0.00288049
0.000806274
8.96371e-06
0.00251607
0.000628146
4.25012e-08
0.000742031
2.66515e-08
5.9647e-12
-6.89567e-17
4.78143e-14
9.10545e-08
2.29495e-07
2.7969e-07
4.98703e-07
1.96763e-05
0.000115794
0.000244444
0.00164154
0.00233773
0.000235006
8.96371e-06
-2.8724e-11
-2.89025e-10
-1.36375e-09
-2.03492e-08
-7.83297e-12
4.13108e-08
5.38078e-14
-5.92452e-15
2.05989e-05
7.77588e-05
9.07054e-05
4.18506e-05
1.54063e-05
1.5352e-05
0.000182112
0.000359475
3.85395e-05
1.28527e-05
1.03228e-05
-1.4455e-16
-2.8958e-25
1.1526e-07
1.75249e-05
3.1279e-05
1.11154e-05
2.1211e-06
1.31333e-06
6.10987e-05
9.95402e-05
9.88029e-05
9.98056e-05
7.21246e-05
1.52384e-05
2.12923e-05
1.57654e-06
1.51603e-08
-4.17635e-15
3.63779e-14
1.43678e-06
2.70745e-07
6.49332e-08
1.69876e-05
3.79223e-05
4.13536e-05
4.12958e-05
3.69439e-05
1.78323e-06
1.64532e-06
6.75867e-06
2.83919e-05
4.81494e-05
5.47366e-05
7.95613e-05
7.98596e-05
2.07283e-05
9.74424e-12
2.56526e-08
5.47326e-06
3.12194e-05
1.49472e-05
2.28596e-06
1.89224e-06
1.14247e-05
2.30438e-05
2.1267e-05
1.92861e-05
1.2735e-06
6.71935e-07
6.71722e-07
6.71952e-07
1.47286e-05
2.28148e-05
5.80092e-05
5.73941e-05
1.61078e-06
6.80939e-08
1.94599e-07
4.27605e-05
6.02857e-05
4.74153e-05
4.27656e-06
3.48559e-07
9.99121e-10
8.05647e-09
1.13004e-11
2.4409e-11
1.65311e-06
4.41556e-06
4.08588e-06
3.2436e-06
3.21272e-06
2.30948e-06
1.0181e-05
6.36987e-08
6.39201e-08
1.68448e-07
3.17085e-05
6.03034e-05
5.30141e-05
3.77841e-05
7.32419e-07
4.85797e-10
1.3654e-06
3.16555e-06
1.02357e-06
6.83829e-08
2.15997e-05
2.53627e-05
1.78218e-05
2.89499e-06
2.35699e-06
4.74173e-06
4.44828e-06
6.3764e-08
3.68296e-07
1.41931e-06
2.52379e-05
2.99707e-05
9.08716e-06
6.077e-24
4.06554e-23
5.78008e-06
1.21537e-05
4.75008e-06
6.98639e-08
2.00676e-05
2.87938e-05
2.87777e-05
1.9254e-05
8.85002e-07
2.11537e-06
8.31344e-06
4.56959e-06
1.86373e-07
1.06546e-08
3.66402e-07
3.7775e-07
2.0051e-06
9.58328e-06
2.80801e-05
2.85223e-05
1.27164e-05
5.73654e-06
6.83402e-08
5.25137e-06
2.77209e-05
2.76158e-05
2.3506e-05
8.67476e-07
1.07061e-05
2.20072e-05
2.19991e-05
1.50742e-08
9.89123e-09
2.73873e-06
2.8014e-05
2.94437e-05
2.95437e-05
2.95299e-05
1.82884e-05
1.58775e-06
2.88476e-07
6.98131e-08
6.82853e-08
1.72573e-05
2.77073e-05
1.8631e-05
8.65475e-07
1.76601e-05
2.19966e-05
2.19952e-05
1.31133e-09
3.64983e-07
7.67313e-06
1.32109e-05
1.12615e-05
6.34323e-06
3.85265e-06
1.34702e-06
1.07535e-06
7.4451e-07
4.56362e-07
6.9755e-08
1.20515e-05
2.00773e-05
4.55486e-06
1.55894e-06
1.54377e-05
2.19865e-05
1.15581e-05
1.03938e-08
4.47675e-09
4.54889e-09
4.63609e-09
4.73923e-09
1.27398e-07
4.72612e-07
3.78658e-07
1.93205e-07
1.98471e-07
3.24338e-07
1.59868e-07
5.2832e-07
1.04371e-06
2.91697e-09
3.95144e-06
1.88266e-05
5.87374e-06
3.39025e-06
5.87964e-09
4.14855e-09
1.1049e-08
2.90656e-08
3.91906e-08
8.55067e-09
3.81332e-09
3.81642e-09
3.81945e-09
3.82202e-09
2.23858e-08
2.94327e-08
2.89188e-09
2.89665e-09
2.91658e-09
3.47661e-06
1.62235e-05
3.44096e-06
3.46092e-06
1.79889e-09
1.55309e-09
2.2068e-09
1.98357e-09
2.00594e-09
2.05924e-09
3.81021e-09
4.35584e-09
5.00168e-09
7.77893e-09
1.84929e-08
1.82524e-08
9.61158e-09
3.055e-09
2.91828e-09
2.92641e-09
1.16125e-05
5.60844e-06
1.48609e-05
5.18824e-10
4.85634e-10
5.75372e-10
6.51477e-10
1.05219e-09
2.01945e-09
3.03227e-09
4.17806e-09
5.19321e-09
7.96872e-09
1.66153e-08
2.18385e-08
1.6818e-08
3.80047e-09
2.92669e-09
4.77831e-08
8.24509e-07
8.6267e-06
1.58978e-05
1.8091e-10
2.48796e-10
3.25864e-10
4.38444e-10
6.42638e-10
9.71928e-10
1.4094e-09
1.99615e-09
2.97634e-09
5.64769e-09
1.11377e-08
1.57862e-08
2.0387e-08
6.80568e-09
2.92631e-09
9.72927e-08
7.74094e-07
6.07105e-06
1.58978e-05
9.41906e-11
1.35068e-10
1.92403e-10
2.6209e-10
3.80556e-10
5.24693e-10
8.24435e-10
1.38378e-09
2.47031e-09
4.15399e-09
7.6882e-09
1.09459e-08
2.03739e-08
1.55155e-08
5.21977e-09
3.34299e-07
6.93409e-07
1.3079e-06
4.86132e-06
4.4135e-11
6.89049e-11
1.03566e-10
1.52505e-10
2.25529e-10
3.45009e-10
5.61301e-10
9.45106e-10
1.64348e-09
2.84066e-09
5.34919e-09
1.19385e-08
1.81319e-08
3.34981e-08
5.21563e-08
3.87713e-07
1.93904e-07
7.79988e-08
3.78567e-08
2.10859e-11
3.27657e-11
5.03951e-11
7.75771e-11
1.18996e-10
1.87414e-10
3.15843e-10
5.51895e-10
9.79174e-10
1.70157e-09
3.02239e-09
6.19411e-09
1.01534e-08
2.68131e-08
5.13105e-08
7.69817e-08
7.69886e-08
3.82851e-08
3.91057e-08
8.42378e-12
1.384e-11
2.13932e-11
3.36571e-11
5.37658e-11
8.70277e-11
1.50918e-10
2.73801e-10
4.98923e-10
8.81723e-10
1.47473e-09
2.34839e-09
3.71351e-09
5.61385e-09
1.74625e-08
9.87264e-09
5.46549e-09
5.51492e-09
5.5238e-07
3.48711e-12
5.47545e-12
8.64281e-12
1.35342e-11
2.12523e-11
3.5265e-11
6.32322e-11
1.20521e-10
2.25684e-10
4.24832e-10
7.18892e-10
1.13158e-09
1.92259e-09
1.82742e-09
8.64142e-09
7.47935e-09
4.22946e-09
5.73541e-09
6.9841e-07
1.21486e-12
2.03344e-12
3.20191e-12
5.0167e-12
7.93939e-12
1.331e-11
2.36977e-11
4.65415e-11
9.52216e-11
2.01479e-10
3.63404e-10
5.22174e-10
6.3827e-10
4.73826e-10
1.21127e-09
4.5597e-09
4.23002e-09
8.75258e-09
2.70889e-07
4.42044e-13
7.07642e-13
1.11102e-12
1.71408e-12
2.71138e-12
4.46704e-12
7.9267e-12
1.4942e-11
2.70651e-11
3.77524e-11
7.72844e-11
1.76179e-10
2.15205e-10
1.18268e-10
1.17809e-10
1.08724e-09
4.52834e-09
2.22804e-08
4.96634e-08
1.46645e-13
2.34652e-13
3.58303e-13
5.29632e-13
7.95763e-13
1.25092e-12
2.02789e-12
3.26054e-12
4.4476e-12
4.06171e-12
9.04944e-12
3.01754e-11
7.56805e-11
5.42368e-11
1.26323e-10
6.71346e-10
3.63678e-09
2.24829e-08
1.07712e-09
4.60868e-14
7.19758e-14
1.06077e-13
1.52326e-13
2.18029e-13
3.21183e-13
4.80483e-13
7.05421e-13
8.97403e-13
7.60389e-13
9.33591e-13
4.03484e-12
1.60744e-11
3.16585e-11
5.04176e-11
3.41231e-10
1.58862e-09
6.48745e-09
1.07249e-09
1.29875e-14
2.10426e-14
3.00247e-14
4.15423e-14
5.68464e-14
7.8552e-14
1.10793e-13
1.53865e-13
1.91342e-13
1.95632e-13
2.03913e-13
6.77913e-13
3.76085e-12
1.3122e-11
1.82613e-11
8.54407e-11
4.05419e-10
6.21652e-10
9.25914e-10
3.69103e-15
5.70265e-15
8.15498e-15
1.09765e-14
1.44548e-14
1.92216e-14
2.63009e-14
3.56586e-14
4.48631e-14
5.07626e-14
6.22398e-14
1.79226e-13
8.24331e-13
4.19329e-12
8.55407e-12
1.09878e-11
6.73664e-11
1.5161e-10
4.27426e-10
9.09525e-16
1.47582e-15
2.10358e-15
2.79988e-15
3.63446e-15
4.82435e-15
6.67315e-15
9.41328e-15
1.29245e-14
1.70177e-14
2.3886e-14
5.09106e-14
1.78341e-13
7.74825e-13
2.64154e-12
5.06741e-12
9.8695e-12
5.17463e-11
1.37682e-10
2.1732e-16
3.5324e-16
5.09443e-16
6.83407e-16
9.07481e-16
1.25528e-15
1.86987e-15
3.00335e-15
5.04254e-15
8.58752e-15
1.51208e-14
3.0095e-14
7.81488e-14
2.61494e-13
8.11585e-13
1.92964e-12
3.31839e-12
1.3563e-11
3.46606e-11
4.60148e-17
7.83347e-17
1.15105e-16
1.59278e-16
2.2257e-16
3.33649e-16
5.72523e-16
1.12781e-15
2.36725e-15
5.04742e-15
1.05712e-14
2.15679e-14
4.85236e-14
1.29278e-13
3.81911e-13
7.9871e-13
1.30212e-12
2.02841e-12
3.03438e-12
9.3438e-18
1.53291e-17
2.32419e-17
3.42828e-17
5.10835e-17
8.61897e-17
1.78159e-16
4.33134e-16
1.12381e-15
2.89821e-15
6.89705e-15
1.5183e-14
3.19403e-14
7.80022e-14
2.07187e-13
4.6012e-13
6.03583e-13
5.94125e-13
7.13635e-13
1.64683e-18
2.77414e-18
4.37247e-18
6.77179e-18
1.11053e-17
2.16786e-17
5.45678e-17
1.63157e-16
5.08089e-16
1.48556e-15
3.9794e-15
9.74056e-15
2.18204e-14
4.76754e-14
1.13446e-13
2.68507e-13
4.27701e-13
4.55319e-13
3.24277e-13
2.44878e-19
4.29648e-19
6.97348e-19
1.15233e-18
2.11915e-18
4.78856e-18
1.42761e-17
5.11033e-17
1.83827e-16
6.09185e-16
1.83103e-15
4.91687e-15
1.19771e-14
2.67005e-14
6.24019e-14
1.49092e-13
2.9217e-13
3.47572e-13
2.05699e-13
3.47742e-20
5.95117e-20
9.93201e-20
1.7517e-19
3.43504e-19
8.10321e-19
2.69605e-18
1.0718e-17
4.17511e-17
1.54113e-16
5.06843e-16
1.53782e-15
4.26028e-15
1.0616e-14
2.47913e-14
6.34753e-14
1.36945e-13
1.78854e-13
9.48481e-14
)
;

boundaryField
{
    leftWall
    {
        type            zeroGradient;
    }
    rightWall
    {
        type            zeroGradient;
    }
    lowerWall
    {
        type            zeroGradient;
    }
    atmosphere
    {
        type            inletOutlet;
        inletValue      uniform 0;
        value           nonuniform List<scalar> 
46
(
2.7287e-07
1.68583e-07
3.65667e-08
8.46515e-09
3.52684e-09
1.32381e-09
3.15736e-10
3.47208e-11
0
0
0
0
0
0
0
0
0
0
0
0
0
1.09404e-16
2.64927e-17
9.35153e-19
0
0
0
0
0
0
0
0
0
0
0
0
0
0
0
0
0
0
6.34753e-14
1.36945e-13
1.78854e-13
9.48481e-14
)
;
    }
    defaultFaces
    {
        type            empty;
    }
}


// ************************************************************************* //
