/*--------------------------------*- C++ -*----------------------------------*\
| =========                 |                                                 |
| \\      /  F ield         | OpenFOAM: The Open Source CFD Toolbox           |
|  \\    /   O peration     | Version:  2312                                  |
|   \\  /    A nd           | Website:  www.openfoam.com                      |
|    \\/     M anipulation  |                                                 |
\*---------------------------------------------------------------------------*/
FoamFile
{
    version     2.0;
    format      ascii;
    arch        "LSB;label=32;scalar=64";
    class       volScalarField;
    location    "3.4";
    object      alpha.galistan;
}
// * * * * * * * * * * * * * * * * * * * * * * * * * * * * * * * * * * * * * //

dimensions      [0 0 0 0 0 0 0];

internalField   nonuniform List<scalar> 
2268
(
1
1
1
1
1
1
1
1
1
1
1
1
1
1
1
1
1
1
1
1
0.999973
0.999947
0.999947
1
1
1
1
1
1
1
1
1
1
1
1
1
1
1
1
1
1
1
1
0.999996
0.999975
0.999973
1
1
1
1
1
0.999999
0.999999
1
1
1
1
1
1
1
1
1
1
1
1
1
1
0.999999
0.999998
1
1
1
1
1
0.999999
0.999999
1
1
1
1
1
1
1
1
1
1
1
1
1
1
1
1
0.998406
0.99882
0.999612
0.999941
0.999977
0.999984
0.999988
0.999999
1
1
0.999998
1
1
0.999997
1
0.999988
0.997721
0.997128
0.996047
0.995815
0.994781
0.997044
0.98833
0.717253
0.762226
0.823402
0.885051
0.934896
0.967814
0.984456
0.994018
0.99823
0.999079
0.998119
0.99812
0.99949
0.999995
0.981209
0.9337
0.849144
0.744547
0.658571
0.58055
0.51076
0.437807
0.400615
0.0268755
0.0502838
0.0913898
0.152228
0.230392
0.315084
0.387097
0.458776
0.520788
0.557061
0.560341
0.548716
0.505349
0.430971
0.332381
0.242643
0.152086
0.109641
0.0699594
0.0537228
0.0498836
0.0590612
0.0734364
5.52018e-12
2.14648e-12
8.72255e-14
-1.326e-07
-2.23449e-07
0.000266016
2.98546e-05
2.91684e-05
2.98546e-05
0.00417822
0.00990484
0.00914134
0.0106712
0.00989133
0.0111577
0.0111638
0.0240249
0.0160348
0.0173863
0.0194157
0.018407
0.0306339
0.0316599
0.957234
0.953327
0.952651
0.955518
0.951597
0.948083
0.949535
0.952077
0.952593
0.952593
0.952593
0.952594
0.952593
0.952594
0.952593
0.952595
0.952594
0.952595
0.952156
0.963665
0.964035
0.963976
0.962608
0.961494
0.960433
0.960437
0.960468
0.938159
0.887637
0.869107
0.856646
0.839068
0.834736
0.83542
0.837289
0.852141
0.883617
0.906716
0.735062
0.754901
0.798662
0.881332
0.883964
0.831175
0.744475
0.605924
0.484621
0.420367
0.357927
0.320647
0.346851
0.407755
0.448997
0.455136
0.455396
0.456745
0.466858
0.209629
0.245924
0.339288
0.404919
0.436199
0.392998
0.224932
0.144087
0.0704143
0.0316703
0.00253986
0.000269002
0.000110615
0.00559464
0.0409617
0.0877454
0.108823
0.102361
0.0695641
0.00122724
0.000130258
0.000129614
0.000129275
0.00491258
0.00828685
0.0182648
0.0130399
0.00221878
0.00221899
0.00464872
0.0211153
0.0237782
0.0238891
0.0154249
0.00678859
0.00241066
0.00238895
0.00237196
0.000126035
0.00029467
0.00474053
0.0151223
0.0212368
0.0211537
0.0212153
0.0223112
0.0197057
0.00349485
0.00264531
0.01148
0.0184204
0.014577
0.00785893
0.00364482
0.00285072
0.00340182
0.00663488
0.000122366
0.00668172
0.0177838
0.0178538
0.0157262
0.0147803
0.0130985
0.0153969
0.0256154
0.00314997
0.00262243
0.00263149
0.00263625
0.0026417
0.0027651
0.00351408
0.00569339
0.0103626
0.0103457
0.00131757
0.00757334
0.0119515
0.00720638
0.00254441
0.00245448
0.00219719
0.000939241
0.0224181
0.0223977
0.0141704
0.00613651
0.00341409
0.00478503
0.0042569
0.00451227
0.010096
0.012443
0.0124399
3.76116e-06
3.05592e-06
9.86327e-07
8.8858e-05
0.000169436
0.00015597
6.40581e-05
2.92016e-05
0.000112763
0.000139371
0.000428022
0.00070998
0.00069515
0.000790867
0.00355102
0.0145384
0.0148808
0.0150916
0.009362
0.00629118
0.00452646
0.00208239
0.00169729
2.49596e-05
1.72581e-05
5.79056e-06
3.42574e-06
3.4223e-06
3.42909e-06
4.84888e-06
5.45538e-06
1.79027e-05
2.72559e-05
3.81163e-05
0.00102934
0.00148573
0.000951417
0.00255971
0.00495087
0.00447542
0.00121063
0.000629048
0.00051391
0.000511697
0.000614923
0.00051331
0.000312046
0.000263756
9.92984e-05
8.24034e-06
3.4222e-06
0.000190175
0.000493623
0.000391802
9.29523e-06
9.30323e-06
7.15278e-05
0.00149802
0.00314559
0.00251314
0.000727486
0.00218248
0.00360432
0.000796649
0.000398272
0.000532419
0.00317874
0.00387276
0.00147317
0.000385351
0.000350997
4.85491e-05
6.40626e-05
0.00095272
0.00184473
0.00179795
0.00045356
9.27629e-06
9.32022e-06
0.000135234
0.00251412
0.0031505
0.00212982
0.000716844
0.00283432
0.00660591
0.00648524
0.00154407
0.000386214
0.00267391
0.00384909
0.00299318
0.000307053
0.000307649
0.0020938
0.00301694
0.00294862
0.000520402
0.000113934
0.000104419
1.52955e-05
0.000656306
0.00205725
0.00246312
0.00177543
0.000135433
0.00121151
0.00622367
0.00660441
0.00442114
3.46845e-06
0.000215972
0.000653343
0.000849296
0.000686401
0.000308827
0.000822469
0.00244851
0.00204383
0.000133678
0.000102733
7.25552e-05
6.08188e-05
6.24242e-05
0.000689412
0.00134029
0.00100967
0.00021201
0.000137437
0.00204229
0.00435369
0.00351363
0.000357848
1.00571e-06
1.65594e-05
1.15282e-06
1.18696e-06
1.21917e-06
0.000399197
0.00184993
0.000862082
0.000120239
4.21557e-06
5.82644e-06
1.51407e-05
1.55828e-05
2.19729e-05
3.23472e-05
1.47318e-05
4.10999e-06
2.41806e-05
0.00021479
0.000326512
0.00020666
2.89753e-05
1.10177e-06
1.02977e-06
1.07468e-06
1.10328e-06
1.51963e-06
0.000211555
0.000938352
0.00203064
4.51631e-07
4.73027e-06
4.14326e-06
4.16472e-06
2.10107e-05
8.18507e-05
0.000125834
9.20828e-05
1.45219e-06
1.48606e-06
1.02909e-06
2.64577e-06
1.66526e-07
1.60713e-07
5.30755e-07
1.84229e-05
4.77564e-05
7.94226e-05
0.000335235
0.00133958
0.00280044
0.00108314
0.0021392
3.68607e-07
4.33412e-06
8.70372e-05
0.000126602
0.000126825
0.000124714
0.000126049
0.00011864
1.83162e-05
2.07997e-07
2.08153e-07
3.06264e-07
3.7363e-07
1.941e-07
3.07914e-07
4.15844e-05
0.000252514
0.000778452
0.00211055
0.00334382
0.00325553
0.0010654
0.0025604
2.65483e-05
2.19323e-06
3.63906e-05
3.97013e-05
3.7806e-05
5.60855e-05
5.84864e-05
1.24823e-05
1.3662e-07
5.84212e-07
7.61051e-07
1.7865e-06
1.49645e-06
2.00155e-07
8.25458e-06
0.000924143
0.00146251
0.00161787
0.0014809
0.000677599
9.22111e-07
0.00163942
0.00256335
0.00031218
3.5618e-09
3.54193e-09
3.5883e-09
3.55263e-09
1.31707e-07
5.1949e-08
1.38895e-08
1.47029e-07
3.71145e-06
1.14263e-06
1.78432e-06
1.42264e-06
7.75157e-06
3.87654e-05
1.53796e-05
1.86487e-08
4.15401e-08
7.35251e-16
1.72156e-14
7.0633e-14
0.0016517
0.00199482
0.000264573
3.52904e-09
3.54618e-09
4.53789e-09
5.06866e-09
3.54864e-09
3.64031e-09
1.37834e-08
1.21138e-07
1.48363e-07
5.93411e-08
5.40995e-08
2.53243e-07
7.92228e-07
1.18044e-06
2.41422e-08
2.62071e-08
1.43264e-08
2.05886e-10
5.08871e-10
7.83144e-09
0.000233291
7.80198e-05
3.16368e-05
1.50425e-06
3.32732e-09
1.52469e-08
6.05547e-09
2.38631e-09
2.33993e-09
1.15702e-08
2.24657e-08
1.85459e-08
1.25906e-08
4.59663e-09
9.65839e-09
8.04549e-08
6.47462e-08
1.02886e-07
1.35481e-07
1.11087e-07
7.34635e-09
4.4271e-10
5.98468e-08
1.38274e-08
1.79359e-08
2.4084e-08
2.86329e-07
1.14291e-07
5.47075e-08
2.45107e-09
2.35236e-09
2.34469e-09
2.34866e-09
2.34678e-09
2.46502e-09
2.49885e-09
2.4556e-09
2.43345e-09
2.41489e-09
2.93501e-08
8.63075e-08
3.22921e-08
1.53045e-08
1.99222e-08
4.92559e-10
3.3265e-07
1.59934e-09
8.20275e-08
7.79607e-08
2.72728e-08
3.19568e-08
1.74687e-08
2.51772e-09
2.35342e-09
2.34981e-09
1.53862e-07
7.12325e-07
7.21603e-07
7.08561e-07
1.62577e-07
3.53262e-08
5.92463e-08
8.83493e-08
3.66341e-07
7.75777e-07
1.09838e-06
8.35268e-07
8.90816e-08
3.11596e-07
1.31529e-09
2.11052e-08
2.25703e-08
1.39414e-08
9.08972e-09
5.39141e-09
2.45811e-09
4.35046e-07
7.26041e-07
7.27151e-07
7.27126e-07
7.2595e-07
2.30885e-07
2.26378e-08
2.31854e-08
2.10236e-07
1.32662e-06
4.20648e-06
4.20959e-06
4.19423e-06
1.61902e-06
3.35439e-07
5.18576e-08
1.31685e-09
1.94444e-09
3.27637e-09
3.16823e-09
2.29338e-09
2.2683e-09
3.64913e-07
5.71843e-07
4.03808e-07
1.84045e-07
1.62211e-07
6.21125e-08
9.72049e-09
9.56883e-09
1.34002e-06
1.8953e-06
1.71058e-06
2.02816e-07
5.86066e-09
2.01877e-09
7.87709e-10
1.51651e-10
6.8241e-11
1.28885e-09
1.04675e-09
1.45555e-09
1.50485e-09
6.5788e-09
6.22629e-08
1.51481e-07
1.04909e-07
1.32923e-08
1.03667e-08
3.2264e-09
3.21509e-09
3.2264e-09
2.50905e-07
4.52403e-07
2.29648e-07
1.02419e-09
1.07686e-09
1.19225e-09
1.67417e-09
1.36164e-09
8.50098e-10
9.47617e-11
1.28147e-09
8.98705e-10
1.51151e-09
2.81225e-09
1.18023e-08
1.96392e-08
1.04847e-08
5.02657e-09
5.03879e-09
5.78436e-09
4.92395e-09
3.51419e-09
1.35228e-08
4.22991e-08
1.5679e-08
1.02427e-09
1.01846e-09
1.02503e-09
1.30163e-09
1.21703e-09
1.00705e-09
7.49204e-10
6.30359e-10
1.29327e-09
7.35324e-10
1.46546e-09
2.51787e-09
4.96897e-09
4.6184e-09
3.42415e-09
5.04246e-09
6.74481e-09
6.81156e-09
6.04991e-09
4.14744e-09
5.116e-09
2.33008e-09
1.38513e-09
1.05286e-09
8.956e-10
7.85894e-10
6.82572e-10
5.59995e-10
4.67871e-10
4.03874e-10
4.46614e-10
1.32553e-09
5.52559e-10
1.17818e-09
1.77901e-09
1.9082e-09
2.75525e-09
3.02765e-09
4.12782e-09
4.40094e-09
4.24903e-09
3.69429e-09
2.78996e-09
2.18927e-09
1.56963e-09
1.0941e-09
7.55029e-10
5.0174e-10
3.47055e-10
2.94925e-10
2.72159e-10
2.29631e-10
1.88938e-10
2.40517e-10
1.36156e-09
3.92852e-10
7.70817e-10
1.12075e-09
1.2957e-09
1.65746e-09
1.84748e-09
2.14562e-09
2.04502e-09
1.81725e-09
1.57708e-09
1.27227e-09
9.82618e-10
7.25741e-10
5.13328e-10
3.3865e-10
2.15244e-10
1.46523e-10
1.1585e-10
1.08469e-10
9.13045e-11
9.36225e-11
1.06083e-10
1.40689e-09
2.82507e-10
4.32153e-10
6.05066e-10
6.76442e-10
7.70046e-10
7.85851e-10
7.66253e-10
6.85377e-10
6.2843e-10
5.4811e-10
4.50901e-10
3.47454e-10
2.52715e-10
1.77869e-10
1.20712e-10
7.56993e-11
4.99422e-11
4.39998e-11
4.31467e-11
4.15284e-11
3.73315e-11
4.96379e-11
1.45144e-09
2.25486e-10
2.26968e-10
2.87119e-10
2.90869e-10
2.75989e-10
2.51674e-10
2.30617e-10
2.08836e-10
1.87683e-10
1.56867e-10
1.23618e-10
9.22948e-11
6.71226e-11
4.79777e-11
3.31223e-11
2.0173e-11
1.52785e-11
1.4673e-11
1.51416e-11
1.55856e-11
1.75002e-11
1.97511e-11
1.49968e-09
1.90628e-10
1.20787e-10
1.27456e-10
1.13071e-10
9.58573e-11
7.97655e-11
6.90591e-11
5.72847e-11
4.62556e-11
3.46153e-11
2.49201e-11
1.84279e-11
1.42776e-11
1.10624e-11
7.46892e-12
5.24248e-12
4.65962e-12
4.67557e-12
5.10556e-12
6.01819e-12
6.21343e-12
8.94804e-12
1.52109e-09
1.80828e-10
5.24931e-11
4.76702e-11
3.93326e-11
3.08952e-11
2.35875e-11
1.84594e-11
1.3561e-11
9.67268e-12
6.22249e-12
4.06281e-12
3.08762e-12
2.63513e-12
2.21817e-12
1.72927e-12
1.32874e-12
1.2853e-12
1.35993e-12
1.62258e-12
1.77498e-12
2.69807e-12
3.26083e-12
1.57997e-09
1.8908e-10
2.515e-11
1.91454e-11
1.74608e-11
1.67349e-11
1.59462e-11
1.32086e-11
9.46053e-12
6.98295e-12
4.56717e-12
2.63378e-12
1.43178e-12
8.02547e-13
5.20966e-13
3.86637e-13
3.24727e-13
3.21106e-13
3.59728e-13
4.64512e-13
6.43817e-13
7.62232e-13
1.33671e-12
1.63887e-09
2.14081e-10
2.58965e-11
2.06732e-11
2.22886e-11
2.67907e-11
2.84981e-11
2.54546e-11
1.9781e-11
1.68921e-11
9.95582e-12
5.23372e-12
2.41407e-12
1.0187e-12
3.93901e-13
1.55863e-13
8.5846e-14
7.39747e-14
8.62332e-14
1.23142e-13
1.58719e-13
3.01979e-13
4.31073e-13
1.72407e-09
2.54574e-10
3.17887e-11
3.10995e-11
4.69781e-11
6.68986e-11
8.23126e-11
8.29377e-11
6.49089e-11
3.81206e-11
2.0153e-11
1.03781e-11
4.68664e-12
1.91907e-12
6.77406e-13
2.06199e-13
5.72514e-14
2.21722e-14
1.90538e-14
2.8418e-14
4.93287e-14
7.3361e-14
1.5544e-13
1.78234e-09
3.03648e-10
4.22232e-11
5.44137e-11
1.15144e-10
1.93401e-10
2.44762e-10
1.87326e-10
1.50734e-10
7.09224e-11
3.56167e-11
1.82057e-11
8.16746e-12
3.33146e-12
1.18747e-12
3.62611e-13
9.01925e-14
2.03872e-14
6.20013e-15
6.34123e-15
9.91522e-15
2.60336e-14
4.5103e-14
1.90709e-09
3.72968e-10
6.81532e-11
1.17531e-10
3.01443e-10
5.29545e-10
6.33032e-10
4.66612e-10
2.74314e-10
1.30067e-10
5.78653e-11
2.86538e-11
1.29245e-11
5.27251e-12
1.92492e-12
6.07412e-13
1.55929e-13
3.3339e-14
5.94634e-15
1.82033e-15
2.8745e-15
5.81551e-15
1.53786e-14
2.01163e-09
4.86389e-10
1.05113e-10
2.51753e-10
7.45265e-10
1.08578e-09
1.15721e-09
8.41702e-10
4.43802e-10
1.8836e-10
8.3925e-11
3.98298e-11
1.80889e-11
7.38712e-12
2.81059e-12
9.33003e-13
2.53773e-13
5.52275e-14
9.83506e-15
1.18327e-15
5.94872e-16
1.96285e-15
4.68272e-15
2.17612e-09
6.57783e-10
1.76255e-10
4.81612e-10
1.10133e-09
1.3445e-09
1.60267e-09
1.20137e-09
5.89169e-10
2.41881e-10
1.07736e-10
4.75326e-11
2.17025e-11
8.97725e-12
3.41226e-12
1.19465e-12
3.55816e-13
8.56245e-14
1.57798e-14
2.17086e-15
3.53217e-16
4.68273e-16
1.81437e-15
2.3371e-09
8.38732e-10
2.80118e-10
5.21469e-10
1.10865e-09
1.54956e-09
1.96189e-09
1.59032e-09
6.58376e-10
2.72327e-10
1.16729e-10
4.96874e-11
2.18539e-11
9.13537e-12
3.55458e-12
1.27294e-12
4.13485e-13
1.1109e-13
2.28853e-14
3.40524e-15
3.42796e-16
1.78549e-16
5.65571e-16
2.37913e-09
1.17178e-09
4.35415e-10
5.26204e-10
9.27513e-10
1.51246e-09
1.96187e-09
1.68257e-09
6.69414e-10
2.64526e-10
1.07789e-10
4.60885e-11
2.00113e-11
8.18117e-12
3.1588e-12
1.1669e-12
3.9928e-13
1.1851e-13
2.68253e-14
4.49172e-15
5.36072e-16
6.98995e-17
2.07522e-16
2.34937e-09
1.501e-09
7.37606e-10
5.50972e-10
7.20988e-10
1.2113e-09
1.83973e-09
1.44254e-09
5.21881e-10
2.00299e-10
8.7088e-11
3.70804e-11
1.60627e-11
6.52762e-12
2.42641e-12
8.67401e-13
3.10111e-13
1.01831e-13
2.66533e-14
4.88859e-15
6.10948e-16
5.00941e-17
6.27958e-17
2.17252e-09
1.54128e-09
8.50102e-10
5.60446e-10
6.07594e-10
1.01109e-09
1.56266e-09
1.08791e-09
4.21003e-10
1.54533e-10
6.34062e-11
2.58389e-11
1.11322e-11
4.42029e-12
1.54326e-12
5.25397e-13
1.89415e-13
6.61946e-14
1.96815e-14
4.20046e-15
6.09044e-16
4.33065e-17
2.02669e-17
1.90547e-09
1.383e-09
7.96252e-10
5.45184e-10
5.81699e-10
1.00564e-09
1.08317e-09
7.3326e-10
2.86701e-10
9.85351e-11
3.73505e-11
1.50498e-11
6.66636e-12
2.56686e-12
8.23581e-13
2.5348e-13
8.46475e-14
3.02727e-14
1.00121e-14
2.57343e-15
4.22134e-16
4.19046e-17
6.29861e-18
1.75983e-09
1.21186e-09
6.88238e-10
5.40934e-10
6.86533e-10
9.38046e-10
8.00664e-10
4.35811e-10
1.59117e-10
4.80498e-11
1.76693e-11
7.27263e-12
3.27675e-12
1.22783e-12
3.64861e-13
9.81e-14
2.79771e-14
8.87383e-15
3.19342e-15
1.05966e-15
2.32362e-16
2.37972e-17
2.43527e-18
2.12339e-09
1.25572e-09
7.01448e-10
7.36543e-10
8.24778e-10
7.307e-10
4.0032e-10
1.62787e-10
4.75241e-11
1.27957e-11
5.59951e-12
2.66852e-12
1.28465e-12
4.83206e-13
1.38159e-13
3.08574e-14
6.63334e-15
1.62601e-15
5.69102e-16
2.91695e-16
7.64464e-17
1.12453e-17
1.18683e-18
2.92546e-09
1.69411e-09
1.13778e-09
9.33653e-10
7.19977e-10
3.70099e-10
1.29557e-10
3.23126e-11
6.69525e-12
2.06595e-12
1.31952e-12
6.60308e-13
3.50011e-13
1.35633e-13
3.5965e-14
6.78465e-15
1.01343e-15
1.54639e-16
5.49765e-17
4.83921e-17
1.87011e-17
4.51745e-18
6.28974e-19
4.3226e-09
2.69276e-09
1.32991e-09
7.55195e-10
3.51237e-10
1.138e-10
2.87437e-11
3.75161e-12
3.95662e-13
1.36378e-13
1.48347e-13
8.40497e-14
5.0963e-14
1.99154e-14
4.95293e-15
7.55573e-16
7.3536e-17
6.35939e-18
2.98143e-18
5.03956e-18
4.14385e-18
1.45511e-18
2.89005e-19
0.00744287
0.00292742
0.00207254
0.00430831
0.000512495
0.000538521
0.000710828
0.00154608
0.000228369
0.000228217
0.000228467
0.000228392
0.000245546
0.000275058
0.000377337
0.000469589
0.000710104
0.00114976
0.00140784
0.00127851
0.000295798
0.00172978
0.00445037
0.00542545
0.0019773
0.00544691
0.00556639
0.00556587
0.00509117
0.00556635
0.00556587
0.00544198
0.00251412
0.0026095
0.00179949
0.00070568
-1.46851e-11
-1.0375e-10
-4.51951e-10
-9.51391e-11
2.02212e-09
2.09871e-09
2.55918e-10
3.40467e-11
2.0173e-09
7.99212e-09
1.92228e-08
2.09772e-12
5.7323e-08
3.47043e-08
2.62567e-07
2.98292e-07
2.14888e-06
1.74416e-06
7.76872e-07
1.57326e-06
2.3588e-06
3.01094e-06
3.1216e-06
3.12919e-06
1.02004e-08
2.15966e-08
9.86186e-08
1.9209e-07
2.02935e-09
4.63847e-09
4.52556e-09
4.49273e-09
5.5209e-09
2.23646e-08
2.69331e-08
2.02211e-08
6.86136e-10
6.82969e-10
2.1099e-09
2.10237e-09
5.8098e-10
1.09253e-09
2.20795e-09
2.76308e-09
3.38782e-10
5.57046e-10
1.20038e-09
1.87623e-09
1.5703e-10
1.75438e-10
2.20004e-10
3.39508e-10
5.9239e-11
6.85554e-11
1.09829e-10
1.09942e-10
2.6666e-11
3.0843e-11
3.28623e-11
4.66835e-11
1.09785e-11
1.11834e-11
1.59056e-11
1.638e-11
4.67671e-12
5.45078e-12
5.55928e-12
7.48925e-12
1.72153e-12
1.86386e-12
2.70778e-12
2.67456e-12
6.71535e-13
8.3929e-13
8.87393e-13
1.21611e-12
2.37858e-13
2.64318e-13
4.01201e-13
4.25614e-13
8.6126e-14
1.16247e-13
1.35474e-13
1.94859e-13
2.86576e-14
3.90745e-14
6.54794e-14
7.77714e-14
1.13288e-14
1.95716e-14
2.63105e-14
4.39223e-14
4.45938e-15
7.30449e-15
1.45397e-14
2.08666e-14
1.99754e-15
3.69118e-15
6.13366e-15
1.20491e-14
6.28244e-16
1.16687e-15
2.84811e-15
4.78622e-15
2.53914e-16
5.04106e-16
1.01669e-15
2.30652e-15
6.63916e-17
1.39233e-16
3.97619e-16
7.31324e-16
1.99504e-17
4.23948e-17
9.32608e-17
2.29412e-16
3.57533e-18
8.33282e-18
2.28487e-17
4.70056e-17
7.54034e-19
1.66146e-18
3.84481e-18
1.09573e-17
1.53829e-19
3.15691e-19
8.58658e-19
1.95371e-18
3.73984e-20
6.25315e-20
1.53807e-19
3.16074e-19
0.00429231
0.000935279
0.000939654
0.00151779
0.00266034
0.00240131
0.00178626
0.000928252
0.0102903
0.0256896
0.0256998
0.0104871
0.0116197
0.0132408
0.01324
0.0132245
0.0130884
0.0101082
0.00768672
0.00155952
0.000771597
0.0048786
0.0108248
0.0112023
0.0112023
0.00842636
0.000917161
0.00385099
0.0229564
0.0192681
0.0126353
0.0132481
0.0132417
0.00584928
0.00582123
0.00622663
0.00638049
0.00595217
0.000260343
0.002953
0.0094692
0.0102063
0.011146
0.010052
0.00533236
0.000690433
0.00111042
0.00487092
0.00533461
0.00905764
0.0132418
0.00848412
0.00581896
0.0102723
0.00790848
0.00323302
0.00220659
0.00147205
0.0026074
0.00155814
0.00175924
0.00143483
0.0012152
0.00116575
0.000687818
0.00066561
0.000663764
0.00259381
0.00515113
0.00470534
0.00107268
0.00589829
0.0177288
0.0180349
0.00647701
0.0022061
0.00104958
0.000289505
0.000139584
0.000171286
0.000167766
0.000282786
0.000410965
0.00131354
0.000705145
0.00060027
0.000744524
0.000940391
0.00102721
0.000787073
0.00155506
0.00354646
0.0180968
0.00826009
0.00221935
0.00289698
0.00085977
7.30819e-05
2.26953e-05
2.37871e-05
0.000102696
0.000183587
0.000385826
0.000815769
0.000620934
0.000561251
0.000558243
0.000556977
0.000554405
0.000924412
0.000739703
0.012679
0.00635128
0.00175603
0.00556639
0.00352215
0.00063359
0.000236848
0.000544381
0.00149838
0.00223545
0.00269851
0.00301387
0.00295559
0.00225444
0.00156918
0.00198049
0.00264772
0.00117668
0.000743407
0.0115043
0.00879229
0.00102951
0.00483537
0.00319297
0.000940759
0.000470331
0.000736463
0.00157686
0.00222637
0.00266508
0.00286502
0.0029035
0.00293732
0.00287267
0.00313516
0.00318291
0.00286603
0.0019048
0.0151369
0.0144817
0.000355443
3.43796e-13
1.22756e-10
0.000168423
6.71948e-05
2.84615e-05
1.24989e-10
1.1022e-10
1.19936e-10
8.89928e-09
1.43823e-08
1.21167e-07
3.09705e-07
5.86073e-05
0.000859589
0.00191274
0.0062086
0.0143519
0.00491895
0.000343591
6.74939e-13
1.13289e-11
8.53686e-18
-1.25655e-11
-3.17455e-16
1.09154e-09
3.8823e-08
8.42635e-07
3.60286e-06
4.73757e-06
3.51475e-06
3.24264e-06
9.34269e-06
1.23082e-05
0.000805939
0.00153791
0.000263531
3.16571e-08
0.00013308
8.08481e-26
2.56932e-10
1.17287e-08
2.79745e-08
1.01606e-08
3.59946e-09
5.10678e-07
1.16275e-05
1.91124e-05
1.9121e-05
1.21191e-05
8.91465e-06
2.89271e-06
2.71152e-06
-7.84288e-09
-4.80895e-09
5.03095e-12
-8.18455e-14
2.23355e-15
3.72544e-25
6.75758e-12
3.54766e-09
3.82003e-08
3.33529e-08
1.35615e-07
1.35784e-06
4.02377e-06
6.12502e-06
4.58177e-06
2.90087e-06
3.19987e-06
4.63068e-06
4.74897e-06
4.72299e-06
4.50501e-06
1.67697e-06
1.1117e-09
7.70831e-08
2.63263e-07
5.46745e-07
2.25033e-07
2.18837e-08
3.88679e-09
6.52517e-08
7.19957e-07
1.04188e-06
1.7974e-08
1.79691e-08
7.21382e-08
8.59041e-08
1.22173e-07
1.35797e-06
1.99743e-06
5.26024e-06
5.90882e-06
1.69619e-06
1.59232e-07
2.10516e-06
1.908e-06
1.34971e-06
1.43572e-07
3.83181e-09
1.93207e-08
1.83519e-08
1.83928e-08
1.7953e-08
2.17513e-07
3.17422e-07
2.91157e-07
3.75684e-07
1.52276e-06
2.38378e-06
4.18113e-07
3.56242e-06
2.57521e-06
1.07333e-07
2.83707e-06
2.86196e-06
1.31922e-06
3.85745e-09
3.88624e-09
4.07421e-09
4.53465e-08
5.37798e-08
3.48044e-08
1.73226e-08
2.28466e-07
8.49365e-07
4.57123e-07
2.30873e-06
2.52392e-06
4.20778e-07
4.18957e-07
7.17578e-07
1.93915e-07
8.88076e-08
9.40009e-08
9.89197e-07
1.36839e-06
4.80659e-07
9.47899e-08
1.14363e-07
1.16043e-07
3.15928e-08
1.74007e-08
3.12653e-07
1.1833e-06
9.58002e-07
6.05259e-07
2.52056e-06
6.75047e-07
2.33315e-06
1.18494e-05
1.28675e-05
2.75036e-08
6.51514e-07
1.51283e-06
1.51334e-06
1.51186e-06
7.38836e-07
5.95563e-08
2.49169e-08
1.79675e-08
1.73884e-08
2.28445e-07
1.17883e-06
1.18356e-06
6.08384e-07
1.60511e-06
6.0798e-07
9.77855e-06
1.94101e-05
1.94023e-05
1.08504e-08
1.22281e-07
1.30485e-06
1.51284e-06
7.25185e-07
7.84027e-08
5.90649e-08
2.09126e-07
3.15229e-07
2.28029e-07
2.48526e-07
7.09445e-07
1.10786e-06
6.39858e-07
5.99589e-07
5.98839e-07
1.00761e-05
1.94023e-05
1.94101e-05
1.06814e-08
1.06534e-09
1.06807e-09
4.45175e-08
4.25624e-08
5.38688e-08
2.21874e-07
2.65125e-07
2.24945e-07
1.14671e-07
7.3157e-08
1.26759e-07
3.0598e-07
3.14777e-07
9.17595e-07
6.01971e-07
5.37133e-06
1.57835e-05
1.5546e-05
1.04327e-09
1.15187e-09
1.0943e-09
8.9852e-09
3.13188e-08
3.09496e-08
2.71338e-08
2.74457e-08
1.01048e-08
1.92896e-08
6.05258e-09
8.04839e-09
3.31977e-09
1.86114e-07
3.04359e-06
1.37688e-05
1.43514e-05
1.7765e-06
1.74841e-06
1.03279e-09
1.25064e-09
1.06657e-09
1.06128e-09
1.31431e-09
1.06043e-09
5.51875e-10
1.20309e-09
1.08172e-09
1.42213e-09
4.76982e-09
5.02771e-09
3.30643e-09
3.29011e-09
2.40368e-06
1.55766e-05
1.03372e-05
1.75576e-06
1.7481e-06
3.04401e-10
3.43843e-10
2.93206e-10
2.76776e-10
2.85508e-10
4.61557e-10
4.58208e-10
3.52944e-10
3.31411e-10
4.76414e-10
1.77357e-09
2.86883e-09
3.3263e-09
3.30629e-09
4.5735e-07
5.63723e-06
4.82794e-06
2.20849e-06
7.37443e-06
1.24827e-10
1.34507e-10
1.27546e-10
1.14514e-10
1.21614e-10
1.37195e-10
1.69723e-10
2.33583e-10
3.31379e-10
5.45945e-10
6.45087e-10
1.84375e-09
6.74956e-09
3.69133e-09
3.72105e-09
4.99827e-08
7.58158e-09
3.13266e-06
7.69261e-06
4.53848e-11
5.35244e-11
5.20529e-11
4.96066e-11
5.99696e-11
8.9235e-11
1.41357e-10
2.33235e-10
3.67208e-10
5.73243e-10
9.24458e-10
2.67528e-09
8.9793e-09
1.09245e-08
7.54872e-09
3.49555e-08
7.25108e-09
1.51327e-06
6.88015e-06
1.97123e-11
2.26683e-11
2.54152e-11
2.88027e-11
4.10429e-11
6.51871e-11
1.14948e-10
2.00728e-10
3.30001e-10
5.26748e-10
9.92851e-10
2.04106e-09
5.76106e-09
1.35345e-08
1.34843e-08
7.06798e-09
7.03509e-09
1.50649e-07
8.45007e-09
7.65746e-12
1.00128e-11
1.25192e-11
1.65894e-11
2.51315e-11
4.2671e-11
7.59005e-11
1.31684e-10
2.22393e-10
3.70684e-10
7.06065e-10
1.49263e-09
2.84085e-09
6.09802e-09
1.3302e-08
7.28856e-09
7.03348e-09
2.03556e-08
8.63257e-09
3.39899e-12
4.46354e-12
5.93979e-12
8.5665e-12
1.36241e-11
2.3455e-11
4.24958e-11
7.57778e-11
1.30967e-10
2.17114e-10
3.69741e-10
7.59528e-10
1.12755e-09
3.40482e-10
2.30398e-08
1.59264e-08
7.03851e-09
8.25844e-09
8.35369e-09
1.31366e-12
1.8864e-12
2.6276e-12
3.9923e-12
6.6274e-12
1.1557e-11
2.12349e-11
3.89581e-11
6.92064e-11
1.17373e-10
1.88593e-10
3.05948e-10
3.59406e-10
2.34579e-10
2.362e-08
6.63634e-08
2.2233e-08
8.26465e-09
4.4054e-08
5.64083e-13
8.16759e-13
1.22676e-12
1.93324e-12
3.20732e-12
5.67288e-12
1.04849e-11
1.973e-11
3.57451e-11
6.44102e-11
1.06996e-10
1.65618e-10
2.42205e-10
2.34578e-10
8.67709e-10
9.95064e-08
1.7964e-07
4.97747e-08
9.94337e-08
2.30331e-13
3.86178e-13
6.33864e-13
1.06737e-12
1.84502e-12
3.27283e-12
5.85471e-12
1.08059e-11
2.01626e-11
3.84219e-11
6.90358e-11
1.12857e-10
2.03585e-10
3.1611e-10
2.8181e-10
5.11713e-08
1.94254e-07
1.94216e-07
1.16861e-07
1.15593e-13
2.11686e-13
3.8883e-13
7.09839e-13
1.29296e-12
2.3071e-12
4.08367e-12
7.20849e-12
1.24358e-11
1.99635e-11
3.53704e-11
7.0546e-11
1.4976e-10
2.60643e-10
2.80897e-10
2.82407e-09
1.35429e-07
1.94254e-07
1.34753e-07
6.33496e-14
1.31286e-13
2.68085e-13
5.24713e-13
1.00144e-12
1.87561e-12
3.3676e-12
5.95184e-12
1.01895e-11
1.68198e-11
2.79376e-11
4.77926e-11
9.93002e-11
1.99637e-10
5.33609e-10
1.84566e-09
1.98732e-08
1.58366e-07
7.90274e-08
3.71749e-14
8.27465e-14
1.80898e-13
3.8612e-13
7.8632e-13
1.55033e-12
2.95278e-12
5.48895e-12
9.81992e-12
1.69399e-11
2.82862e-11
4.62056e-11
8.21577e-11
1.81581e-10
4.49464e-10
1.66373e-09
5.93769e-09
1.97969e-08
9.4439e-09
1.96404e-14
4.95695e-14
1.14465e-13
2.59537e-13
5.67289e-13
1.19469e-12
2.45163e-12
4.87855e-12
9.24951e-12
1.67377e-11
3.00138e-11
5.19765e-11
9.0418e-11
1.91275e-10
4.16446e-10
1.21062e-09
2.22855e-09
1.47201e-09
1.4721e-09
1.01561e-14
2.5397e-14
6.32421e-14
1.5305e-13
3.60372e-13
8.25297e-13
1.83992e-12
3.93167e-12
7.97551e-12
1.56782e-11
2.99045e-11
5.95363e-11
1.13005e-10
2.21079e-10
4.17431e-10
8.74858e-10
1.49435e-09
1.47196e-09
1.47192e-09
4.07167e-15
1.12076e-14
2.95352e-14
7.70352e-14
1.95917e-13
4.91058e-13
1.21109e-12
2.84182e-12
6.33995e-12
1.33212e-11
2.70841e-11
5.86035e-11
1.29075e-10
2.46453e-10
4.2781e-10
8.29118e-10
1.42037e-09
1.62109e-09
1.47187e-09
1.45472e-15
4.15388e-15
1.15715e-14
3.21551e-14
9.03344e-14
2.52735e-13
6.88667e-13
1.80526e-12
4.47517e-12
1.03507e-11
2.24231e-11
4.93304e-11
1.16257e-10
2.66668e-10
4.73618e-10
7.8787e-10
1.3689e-09
1.6298e-09
1.24396e-09
4.19434e-16
1.26989e-15
3.70433e-15
1.11429e-14
3.48698e-14
1.09286e-13
3.35406e-13
9.9029e-13
2.73258e-12
6.98057e-12
1.66304e-11
3.66987e-11
8.70546e-11
2.16123e-10
4.66736e-10
7.72661e-10
1.24635e-09
1.55145e-09
9.45991e-10
1.06302e-16
3.12304e-16
9.62037e-16
3.16165e-15
1.09913e-14
3.90612e-14
1.36967e-13
4.54661e-13
1.40352e-12
4.07669e-12
1.05903e-11
2.52036e-11
5.65807e-11
1.47375e-10
3.71077e-10
7.09349e-10
1.02357e-09
1.21085e-09
7.32258e-10
2.16108e-17
6.4895e-17
2.08889e-16
7.48453e-16
2.92871e-15
1.19496e-14
4.79482e-14
1.81842e-13
6.38944e-13
2.02661e-12
5.81575e-12
1.52026e-11
3.63805e-11
8.41933e-11
2.14737e-10
5.09555e-10
7.91117e-10
9.09884e-10
4.68954e-10
3.64528e-18
1.11486e-17
3.71855e-17
1.44584e-16
6.32459e-16
2.90552e-15
1.31878e-14
5.69269e-14
2.24129e-13
7.89919e-13
2.50508e-12
7.08827e-12
1.81633e-11
4.21597e-11
1.04573e-10
2.63452e-10
5.2386e-10
6.26175e-10
2.69423e-10
5.62447e-19
1.64276e-18
5.48116e-18
2.17957e-17
9.96198e-17
4.8056e-16
2.42054e-15
1.14694e-14
4.82917e-14
1.87497e-13
6.45268e-13
2.04663e-12
5.86603e-12
1.51538e-11
3.62371e-11
9.51356e-11
2.06752e-10
2.62081e-10
1.0329e-10
)
;

boundaryField
{
    leftWall
    {
        type            zeroGradient;
    }
    rightWall
    {
        type            zeroGradient;
    }
    lowerWall
    {
        type            zeroGradient;
    }
    atmosphere
    {
        type            inletOutlet;
        inletValue      uniform 0;
        value           nonuniform List<scalar> 
46
(
4.3226e-09
2.69276e-09
1.32991e-09
7.55195e-10
3.51237e-10
1.138e-10
2.87437e-11
3.75161e-12
0
0
0
0
0
0
0
0
0
0
0
0
0
1.45511e-18
2.89005e-19
3.73984e-20
6.25316e-20
0
0
0
0
0
0
0
0
0
0
0
0
0
0
0
0
0
9.51356e-11
2.06752e-10
2.62081e-10
1.0329e-10
)
;
    }
    defaultFaces
    {
        type            empty;
    }
}


// ************************************************************************* //
