/*--------------------------------*- C++ -*----------------------------------*\
| =========                 |                                                 |
| \\      /  F ield         | OpenFOAM: The Open Source CFD Toolbox           |
|  \\    /   O peration     | Version:  2312                                  |
|   \\  /    A nd           | Website:  www.openfoam.com                      |
|    \\/     M anipulation  |                                                 |
\*---------------------------------------------------------------------------*/
FoamFile
{
    version     2.0;
    format      ascii;
    arch        "LSB;label=32;scalar=64";
    class       volScalarField;
    location    "3.4";
    object      alpha.air;
}
// * * * * * * * * * * * * * * * * * * * * * * * * * * * * * * * * * * * * * //

dimensions      [0 0 0 0 0 0 0];

internalField   nonuniform List<scalar> 
2268
(
7.53375e-10
7.02199e-10
6.2667e-10
4.51182e-10
2.31537e-10
1.37541e-10
7.24655e-11
4.03176e-11
2.46275e-11
1.81538e-11
1.75604e-11
2.24068e-11
3.25299e-11
5.09873e-11
8.60507e-11
1.42992e-10
1.69756e-10
1.35826e-10
1.35826e-10
1.35826e-10
3.96871e-09
3.77107e-08
2.07513e-07
9.85778e-10
1.82252e-09
2.49065e-09
2.397e-09
1.16444e-09
5.58134e-10
2.4065e-10
1.07732e-10
6.63933e-11
6.52517e-11
8.22842e-11
1.45406e-10
2.10878e-10
2.53512e-10
4.18448e-10
8.14974e-10
1.94193e-09
2.38203e-09
2.16697e-10
1.35826e-10
1.22033e-08
9.72716e-07
2.166e-06
1.17301e-09
2.91074e-09
3.41372e-09
6.02016e-09
6.45621e-09
5.59343e-10
9.76811e-11
8.66174e-11
2.02315e-10
1.62528e-10
2.71668e-10
6.2892e-10
7.79408e-10
5.66528e-10
5.52056e-10
9.05004e-10
9.31386e-09
1.97316e-08
1.79134e-08
1.29718e-08
1.569e-09
1.45189e-06
1.49997e-06
1.26028e-09
1.17628e-09
1.13247e-09
1.1652e-09
8.85467e-09
5.15625e-10
2.11219e-07
8.42508e-08
4.37653e-09
6.68544e-10
3.78417e-10
2.86087e-10
3.20803e-10
3.55679e-10
1.96246e-10
1.87123e-10
2.03131e-09
9.04751e-09
2.81444e-08
1.05111e-08
1.58919e-09
-2.12809e-09
-3.53225e-10
3.9773e-05
5.06922e-05
9.90338e-05
3.80502e-05
5.08268e-07
2.73565e-06
1.9236e-06
7.31541e-07
9.66252e-10
8.3157e-10
1.04006e-07
1.1951e-10
1.19487e-10
3.22026e-06
1.85025e-08
1.16383e-05
3.01029e-06
6.35329e-06
1.38513e-06
1.53399e-11
1.56104e-11
0.000655208
0.00762831
0.000773871
0.00101872
0.0011855
0.00100322
0.000430493
2.86166e-05
3.69791e-07
3.98682e-07
1.51905e-05
7.53506e-05
0.000159621
0.000130098
2.15404e-05
2.13034e-06
7.43822e-05
0.000251722
2.46341e-08
4.21068e-12
4.29922e-12
4.20874e-12
0.0057997
0.0161628
0.0166893
0.00100269
0.00132591
0.00132591
0.00132591
0.000900779
6.99732e-05
3.87529e-07
3.70685e-07
5.33102e-05
0.00023403
0.000248828
0.000144599
1.69577e-06
1.69721e-06
3.76917e-05
3.83158e-05
0.00151442
0.0113
0.0138324
0.0137462
0.00975696
0.0117414
0.0134041
0.000567
0.00116921
0.00132519
0.000612069
0.000319544
5.34577e-05
4.23904e-06
4.16865e-06
7.31197e-05
0.000132067
9.37908e-05
0.000382201
0.000478612
1.82812e-06
0.000146398
0.00858746
0.015312
0.0154177
0.0109643
0.00230647
0.00229809
0.00685595
0.031558
0.000579724
0.00323329
0.00584939
0.0105941
0.0107946
0.00732976
0.00480122
0.00379936
0.00389621
0.00396617
0.00396181
0.00387145
0.00336537
0.00336376
0.00341258
0.00784226
0.00787241
0.00659493
0.00658871
0.000188095
0.000260177
0.00163216
0.00351187
0.00462109
0.00565145
0.00464327
0.00381626
0.00379336
0.00379448
0.003843
0.00434726
0.00379469
0.003363
0.00336219
0.00702145
0.0159113
0.0154214
0.0089331
0.000188095
0.000188095
0.000188115
0.000190302
0.00126903
0.0062927
0.0172773
0.0156285
0.0077887
0.0101573
0.0137236
0.0181604
0.0179431
0.0128601
0.00513789
0.0116228
0.0166281
0.0166284
0.0114906
0.000681429
0.00245777
0.00450187
0.00427796
0.0063803
0.0233937
0.0246691
0.0236524
0.0253478
0.0413537
0.0372635
0.031091
0.0329541
0.0346871
0.0352395
0.0125095
0.00977917
0.0108763
0.00999743
0.0029295
0.0044777
0.00924068
0.0117283
0.0117559
0.0130296
0.0141834
0.00689387
0.0215152
0.0421915
0.0422261
0.0300382
0.0293113
0.0293284
0.0422574
0.0324609
0.00978818
0.00979836
0.00980809
0.00446669
0.00322113
0.0054763
0.00785354
0.00738391
0.00661074
0.00565673
0.00684509
0.00685383
0.0420448
0.0422149
0.0314848
0.0343094
0.039011
0.048878
0.0536836
0.0338196
0.0218895
0.0263305
0.00446777
0.0031396
0.00313573
0.00316442
0.00376505
0.00402611
0.00565598
0.0130571
0.0168414
0.0163192
0.0187639
0.0163169
0.0444663
0.0925485
0.0544126
0.0538511
0.0515745
0.0410295
0.0362224
0.00313915
0.00313697
0.00524859
0.0122897
0.017053
0.016807
0.017124
0.0185374
0.0600104
0.0163552
0.0163182
0.0163571
0.0571559
0.0960876
0.0930257
0.0526357
0.0432833
0.0420648
0.0333828
0.000563757
0.000560367
0.000470966
0.000294829
0.000203466
0.000155396
0.00023208
0.000282738
0.000129347
3.30839e-05
0.000161076
0.000888689
0.000899823
0.00473067
0.00959166
0.0121796
0.0120486
0.00636985
0.00162119
0.00162537
0.00357913
0.0137337
0.0502736
0.000592528
0.000566343
0.00123911
0.00203326
0.00109045
0.000428234
0.000427991
0.000427315
0.000312505
2.9825e-05
8.66959e-06
3.83962e-05
0.000346154
0.00165148
0.00631328
0.0101676
0.0054165
0.00538651
0.00536625
0.00483094
0.00350106
0.0198342
0.0502962
0.000594657
0.000643664
0.00246743
0.00201893
0.00154231
0.000677187
0.000426741
0.000427593
0.000795089
0.000691471
0.00142355
0.00112284
0.000219151
0.00115483
0.00934066
0.0108046
0.00939725
0.0290932
0.0336434
0.0286549
0.010813
0.0272968
0.0495812
0.0639046
0.0303041
0.0410676
0.0318392
0.0137965
0.0300042
0.0348662
0.0288724
0.0449589
0.0672073
0.0204037
0.00497657
0.00296963
0.00417335
0.0210831
0.0531074
0.0422057
0.024909
0.0319364
0.0321738
0.0244527
0.0327263
0.0402548
0.0658328
0.0445882
0.0174737
0.0368986
0.0555073
0.0636857
0.0706208
0.0706219
0.0706213
0.070625
0.070019
0.0434297
0.0361739
0.0588845
0.0808199
0.0808198
0.0794201
0.0083627
0.00181817
0.00178916
0.00104068
0.000718384
0.000413698
0.0659592
0.0205081
0.00112541
0.0101709
0.0207753
0.0434777
0.054642
0.0396959
0.0231832
0.0301861
0.0711483
0.0808194
0.0808193
0.0808199
0.0808199
0.08082
0.0808199
0.0702257
0.0052267
0.00125128
0.000897698
5.24764e-06
1.42287e-20
0.0302627
0.000622598
0.000307842
0.000409041
0.000535234
0.00162265
0.00222494
0.000852719
0.000429773
0.000505947
0.00353233
0.01868
0.0455034
0.0655481
0.074039
0.0609066
0.0352198
0.0228787
0.012464
0.00644538
0.00270432
1.516e-05
0.000227808
0.0111454
0.000307842
0.000307853
0.000310115
0.000308021
0.000307871
0.000310771
0.000345913
0.000342048
0.000620379
0.000692617
0.000697664
0.00221487
0.00684534
0.0095398
0.00992587
0.00651818
0.00620413
0.0069548
0.0217721
0.082624
0.210967
0.414895
0.00505094
0.00030809
0.00046813
0.102528
0.254067
0.361813
0.423315
0.455201
0.467454
0.458726
0.448694
0.437841
0.415092
0.38091
0.33818
0.304213
0.303446
0.366229
0.483522
0.635522
0.80126
0.935325
0.988891
0.00515431
0.0234618
0.341464
0.761249
0.9377
0.978766
0.993421
0.998551
0.999634
0.99893
0.998087
0.997514
0.998052
0.999032
0.998798
0.989574
0.979054
0.978138
0.978339
0.994075
0.998518
0.999322
0.999999
0.00528046
0.477263
0.92475
0.999279
0.999966
0.999958
0.999949
0.999957
0.999996
0.999984
0.999961
0.999995
0.999996
0.999996
0.999995
0.999178
0.991392
0.988623
0.999201
0.999999
0.999997
0.999977
0.999973
0.364263
0.92556
0.987997
0.999875
1
1
1
1
1
1
1
1
0.999993
0.999988
0.999987
0.999993
0.999991
0.999994
0.999993
0.999997
0.999999
0.999967
0.999953
0.980846
0.996483
0.999807
0.999983
0.999998
1
1
1
1
0.999999
0.999998
0.999998
0.999998
0.999996
0.999995
0.999997
0.99999
0.999978
0.999978
0.99998
0.999999
0.999999
0.999997
0.999999
0.999998
0.999982
0.999994
0.999999
1
1
0.999999
0.999986
0.99998
0.999989
1
1
1
1
1
1
0.999996
0.999978
0.999986
0.999996
0.999997
0.99995
1
0.999996
0.99999
0.999998
1
1
0.99999
0.999974
0.999974
0.99998
0.999984
0.999988
0.999996
1
0.999976
0.999945
0.999942
0.999943
0.99996
0.999981
0.999993
0.999971
0.999939
1
0.999999
0.999999
1
0.999996
0.999989
0.999989
0.999994
0.999949
0.999909
0.999908
0.999908
0.999909
0.999916
0.999917
0.999941
0.999964
0.999973
0.999976
0.99998
0.999996
1
1
1
1
1
1
0.999994
0.999991
0.999998
0.999997
0.999921
0.999909
0.999922
0.999967
0.999966
0.999963
0.999972
0.999988
0.999995
1
1
1
1
1
1
1
1
1
1
0.999999
1
1
0.99999
0.999982
0.999987
0.999998
1
1
1
1
1
1
1
1
1
1
1
1
1
1
1
1
1
1
0.999999
0.999999
1
1
1
1
1
1
1
1
1
1
1
1
1
1
1
1
1
1
1
1
1
1
1
1
1
1
1
1
1
1
1
1
1
1
1
1
1
1
1
1
1
1
1
1
1
1
1
1
1
1
1
1
1
1
1
1
1
1
1
1
1
1
1
1
1
1
1
1
1
1
1
1
1
1
1
1
1
1
1
1
1
1
1
1
1
1
1
1
1
1
1
1
1
1
1
1
1
1
1
1
1
1
1
1
1
1
1
1
1
1
1
1
1
1
1
1
1
1
1
1
1
1
1
1
1
1
1
1
1
1
1
1
1
1
1
1
1
1
1
1
1
1
1
1
1
1
1
1
1
1
1
1
1
1
1
1
1
1
1
1
1
1
1
1
1
1
1
1
1
1
1
1
1
1
1
1
1
1
1
1
1
1
1
1
1
1
1
1
1
1
1
1
1
1
1
1
1
1
1
1
1
1
1
1
1
1
1
1
1
1
1
1
1
1
1
1
1
1
1
1
1
1
1
1
1
1
1
1
1
1
1
1
1
1
1
1
1
1
1
1
1
1
1
1
1
1
1
1
1
1
1
1
1
1
1
1
1
1
1
1
1
1
1
1
1
1
1
1
1
1
1
1
0.999999
0.999999
1
1
1
1
1
1
1
1
1
1
1
1
1
1
1
1
1
1
1
1
0.999999
0.999999
0.999999
0.999999
1
1
1
1
1
1
1
1
1
1
1
1
1
1
1
1
1
1
1
0.999999
0.999999
0.999999
0.999999
1
1
1
1
1
1
1
1
1
1
1
1
1
1
1
1
1
1
1
0.999999
0.999999
0.999999
0.999999
0.999999
1
1
1
1
1
1
1
1
1
1
1
1
1
1
1
1
1
1
0.999999
0.999999
0.999999
0.999999
0.999999
1
1
1
1
1
1
1
1
1
1
1
1
1
1
1
1
1
1
1
1
1
0.999999
0.999999
1
1
1
1
1
1
1
1
1
1
1
1
1
1
1
1
1
1
1
1
1
0.999999
1
1
1
1
1
1
1
1
1
1
1
1
1
1
1
1
1
1
1
1
1
1
1
1
1
1
1
1
1
1
1
1
1
1
1
1
1
1
1
1
1
1
1
1
1
1
1
1
1
1
1
1
1
1
1
1
1
1
1
1
1
1
1
1
1
1
1
1
1
1
1
1
1
1
1
1
1
1
1
1
1
1
1
1
1
1
1
1
1
1
1
1
1
1
1
1
1
1
1
1
1
1
1
1
1
1
1
1
1
1
1
1
1
1
1
1
1
1
1
1
1
1
1
1
1
1
1
1
1
1
1
0.050313
0.0483476
0.0487579
0.0173677
0.0503258
0.0503387
0.05032
0.0494454
0.0230857
0.0231315
0.0230822
0.0248584
0.0310253
0.0240987
0.0389637
0.0497219
0.00017213
-1.15521e-37
-2.50409e-21
-5.33405e-20
4.69422e-21
5.19115e-20
-4.48442e-20
-8.66658e-20
0.0213156
0.0733847
0.136961
0.192894
0.616653
0.748277
0.835806
0.891625
0.991512
0.99013
0.990555
0.994379
1
1
1
1
1
1
1
1
0.999985
0.999981
0.999988
0.999996
0.999981
0.999933
0.999932
0.999935
0.999935
0.999932
0.999932
0.999932
0.999936
0.999936
0.999968
0.999996
1
1
1
0.999999
1
1
0.999999
1
1
0.999999
0.999999
1
1
1
1
1
1
1
1
1
1
1
1
1
1
1
1
1
1
1
1
1
1
1
1
1
1
1
1
1
1
1
1
1
1
1
1
1
1
1
1
1
1
1
1
1
1
1
1
1
1
1
1
1
1
1
1
1
1
1
1
1
1
1
1
1
1
1
1
1
1
1
1
1
1
1
1
1
1
1
1
1
1
1
1
1
1
1
1
1
1
1
1
1
1
1
1
1
0.0031383
0.00461424
0.00948458
0.0311408
0.0497514
0.0506539
0.0432766
0.0456053
0.116205
0.106535
0.0729351
0.0396846
0.0960275
0.0960977
0.0960977
0.0840591
0.0117638
0.00358335
0.00311304
0.0228109
0.0172027
0.0369223
0.0606735
0.0733407
0.0843298
0.111885
0.163571
0.117617
0.048499
0.0224311
0.0301873
0.0960977
0.0960977
0.0520608
0.00480242
0.00425241
0.00250805
0.00246348
0.0429372
0.0529616
0.0518284
0.0190704
0.00346875
0.0131896
0.134155
0.185949
0.116669
0.00968299
0.00963935
0.0098424
0.0619727
0.0579332
0.00102609
0.00109287
0.00107839
0.00226368
0.00287539
0.0494089
0.042083
0.0087648
0.00030499
0.000301217
0.000406603
0.0895127
0.185939
0.185949
0.185925
0.133532
0.0385159
0.00608897
0.00194363
0.00105233
0.0103467
0.0108795
0.00232402
0.00285695
-8.70438e-23
0.000683791
0.000728091
0.000586216
0.000557541
0.000524078
0.000533414
0.0426612
0.164063
0.185022
0.184944
0.088214
0.0241686
0.0016449
0.000865351
0.0227055
0.199635
0.00896743
0.00404319
2.46916e-19
-3.66439e-06
0.00027823
0.000335399
0.000479772
0.000490691
0.0005037
0.000567547
0.000568064
0.00740996
0.0415706
0.0381969
0.0178401
0.00159682
0.00154556
0.0195942
0.255113
0.0458947
0.00692927
0.249519
0.274577
0.235623
0.256201
0.27941
0.303596
0.301279
0.291917
0.267017
0.237776
0.175125
0.117129
0.0837049
0.0610036
0.0367839
0.031543
0.253721
0.0946417
0.00909656
0.942466
0.964577
0.947416
0.955796
0.962386
0.972353
0.974656
0.977456
0.975528
0.965321
0.941303
0.899117
0.864319
0.830553
0.680252
0.387983
0.647704
0.407731
0.0698789
0.997824
0.999515
0.999832
0.999228
0.999972
1
1
1
1
1
0.999999
0.999999
0.999912
0.999003
0.997151
0.957035
0.978664
0.892501
0.818661
1
1
1
1
1
1
1
0.999999
0.999967
0.99985
0.99981
0.999922
0.999974
0.999972
0.998966
0.998095
0.999713
0.999989
0.999857
1
1
0.999998
0.999978
0.999967
0.999992
0.999998
0.999985
0.99991
0.999808
0.999745
0.999746
0.999814
0.999978
0.999976
1
1
1
1
0.999998
0.999999
0.999999
0.999975
0.999957
0.999957
0.999957
0.999962
0.999993
0.999994
0.999979
0.999821
0.999754
0.99975
0.999764
0.999882
0.999974
1
1
0.999983
0.999964
0.999978
0.999993
0.999992
0.999978
0.999966
0.999972
0.999979
0.999999
0.999999
0.999999
0.999955
0.999776
0.999759
0.999848
0.999938
0.999996
1
0.999958
0.99995
0.999914
0.999923
0.999986
0.999995
0.999988
0.99998
0.999987
0.999995
0.999997
0.999994
0.999995
0.999974
0.999776
0.999958
0.999987
0.999997
1
0.999997
0.999974
0.999914
0.99991
0.999918
0.999985
1
0.999983
0.999968
0.999973
0.999997
0.99996
0.999914
0.999833
0.999809
0.999997
0.999995
0.999995
0.999999
1
0.999999
0.99994
0.999926
0.999948
0.999995
0.999999
0.99999
0.999959
0.999973
0.999999
0.999956
0.999687
0.999686
0.999871
0.999997
0.999972
0.999841
0.999826
1
0.999998
0.99998
0.999979
0.999987
0.99999
0.999972
0.999961
0.999959
0.999976
0.999999
0.999956
0.999686
0.999686
0.999778
0.999997
0.999874
0.999722
0.999723
0.999999
0.999998
0.999995
0.999955
0.999949
0.999949
0.999949
0.999957
0.999983
0.999998
0.999999
0.999999
0.999812
0.999686
0.999769
0.999997
0.999861
0.999723
0.999722
0.999998
0.999996
0.999989
0.999982
0.999981
0.999985
0.999989
0.999995
0.999996
0.999996
0.999997
1
0.999954
0.999699
0.999871
0.999997
0.999964
0.99973
0.999738
1
1
1
1
1
1
0.999999
0.999998
0.999999
0.999999
0.999999
1
0.999999
0.999951
0.999989
0.999979
0.999915
0.999929
0.999817
1
1
1
1
1
1
1
1
1
1
1
1
1
1
0.999998
0.999977
0.999899
0.99997
0.99997
1
1
1
1
1
1
1
1
1
1
1
1
1
1
1
0.999994
0.999958
0.999964
0.999847
1
1
1
1
1
1
1
1
1
1
1
1
1
1
1
0.999999
0.999999
0.999937
0.999808
1
1
1
1
1
1
1
1
1
1
1
1
1
1
1
0.999999
0.999999
0.999964
0.999811
1
1
1
1
1
1
1
1
1
1
1
1
1
1
1
0.999999
0.999999
0.999999
0.999971
1
1
1
1
1
1
1
1
1
1
1
1
1
1
1
0.999999
1
1
1
1
1
1
1
1
1
1
1
1
1
1
1
1
1
1
0.999999
1
1
1
1
1
1
1
1
1
1
1
1
1
1
1
1
1
0.999999
0.999999
0.999999
1
0.999995
1
1
1
1
1
1
1
1
1
1
1
1
1
1
1
0.999999
0.999999
1
0.999994
1
1
1
1
1
1
1
1
1
1
1
1
1
1
0.999999
1
1
1
0.999998
1
1
1
1
1
1
1
1
1
1
1
1
1
1
0.999997
0.999993
0.999999
1
1
1
1
1
1
1
1
1
1
1
1
1
1
1
1
0.999996
0.999993
0.999993
1
0.999999
1
1
1
1
1
1
1
1
1
1
1
1
1
1
0.999998
0.999993
0.999993
0.999993
0.999995
1
1
1
1
1
1
1
1
1
1
1
1
1
1
1
0.999997
0.999993
0.999993
0.999998
1
1
1
1
1
1
1
1
1
1
1
1
1
1
1
1
0.999998
0.999999
1
1
1
1
1
1
1
1
1
1
1
1
1
1
1
1
1
1
1
1
1
1
1
1
1
1
1
1
1
1
1
1
1
1
1
1
1
1
1
1
1
1
1
1
1
1
1
1
1
1
1
1
1
1
1
1
1
1
1
1
1
1
1
1
1
1
1
1
1
1
1
1
1
1
1
1
1
1
1
1
1
1
1
1
1
1
1
1
1
1
1
1
1
1
1
1
1
1
1
1
1
1
1
1
1
1
1
1
1
1
1
1
1
1
1
1
1
1
1
1
1
1
1
1
1
1
1
1
1
1
1
1
1
1
)
;

boundaryField
{
    leftWall
    {
        type            alphaContactAngle;
        thetaProperties 
6
(
(galistan air) 90 0 0 0
(oil galistan) 90 0 0 0
(water oil) 90 0 0 0
(water air) 90 0 0 0
(oil air) 90 0 0 0
(water galistan) 90 0 0 0
);
        value           nonuniform List<scalar> 
50
(
7.53375e-10
9.85778e-10
1.17301e-09
1.26028e-09
3.9773e-05
0.000773871
0.00100269
0.000567
0.000563757
0.000592528
0.000594657
0.0639046
0.0658328
0.0659592
0.0302627
0.0111454
0.00505094
0.00515431
0.00528046
0.364263
0.980846
0.999999
1
1
1
1
1
1
1
1
1
1
1
1
1
1
1
1
1
1
1
1
1
1
1
1
1
1
1
1
)
;
    }
    rightWall
    {
        type            alphaContactAngle;
        thetaProperties 
6
(
(galistan air) 90 0 0 0
(oil galistan) 90 0 0 0
(water oil) 90 0 0 0
(water air) 90 0 0 0
(oil air) 90 0 0 0
(water galistan) 90 0 0 0
);
        value           nonuniform List<scalar> 
50
(
0.00658871
0.0089331
0.0114906
0.00999743
0.00980809
0.0263305
0.0362224
0.0333828
0.00311304
0.00246348
0.00287539
0.00285695
0.00404319
0.00692927
0.00909656
0.0698789
0.818661
0.999857
1
1
1
1
0.999999
0.999826
0.999723
0.999722
0.999738
0.999817
0.99997
0.999847
0.999808
0.999811
0.999971
1
1
0.999995
0.999994
0.999998
1
0.999999
0.999995
0.999998
1
1
1
1
1
1
1
1
)
;
    }
    lowerWall
    {
        type            alphaContactAngle;
        thetaProperties 
6
(
(galistan air) 90 0 0 0
(oil galistan) 90 0 0 0
(water oil) 90 0 0 0
(water air) 90 0 0 0
(oil air) 90 0 0 0
(water galistan) 90 0 0 0
);
        value           nonuniform List<scalar> 
62
(
7.53375e-10
7.02199e-10
6.2667e-10
4.51182e-10
2.31537e-10
1.37541e-10
7.24655e-11
4.03176e-11
2.46275e-11
1.81538e-11
1.75604e-11
2.24068e-11
3.25299e-11
5.09873e-11
8.60507e-11
1.42992e-10
1.69756e-10
1.35826e-10
1.35826e-10
1.35826e-10
3.96871e-09
3.77107e-08
2.07513e-07
2.07513e-07
2.166e-06
1.49997e-06
-3.53225e-10
0.00762831
0.0166893
0.0134041
0.031558
0.050313
0.0483476
0.0487579
0.0173677
0.000579724
0.000188095
0.000188095
0.000681429
0.0029295
0.00446669
0.00446777
0.00313915
0.000579724
0.00323329
0.00584939
0.0105941
0.0107946
0.00732976
0.00480122
0.00379936
0.00389621
0.00396617
0.00396181
0.00387145
0.00336537
0.00336376
0.00341258
0.00784226
0.00787241
0.00659493
0.00658871
)
;
    }
    atmosphere
    {
        type            inletOutlet;
        inletValue      uniform 1;
        value           nonuniform List<scalar> 
46
(
1
1
1
1
1
1
1
1
1
1
1
1
1
1
1
1
1
1
1
1
1
1
1
1
1
1
1
1
1
1
1
1
1
1
1
1
1
1
1
1
1
1
1
1
1
1
)
;
    }
    defaultFaces
    {
        type            empty;
    }
}


// ************************************************************************* //
