/*--------------------------------*- C++ -*----------------------------------*\
| =========                 |                                                 |
| \\      /  F ield         | OpenFOAM: The Open Source CFD Toolbox           |
|  \\    /   O peration     | Version:  2312                                  |
|   \\  /    A nd           | Website:  www.openfoam.com                      |
|    \\/     M anipulation  |                                                 |
\*---------------------------------------------------------------------------*/
FoamFile
{
    version     2.0;
    format      ascii;
    arch        "LSB;label=32;scalar=64";
    class       volScalarField;
    location    "3.4";
    object      alpha.oil;
}
// * * * * * * * * * * * * * * * * * * * * * * * * * * * * * * * * * * * * * //

dimensions      [0 0 0 0 0 0 0];

internalField   nonuniform List<scalar> 
2268
(
7.18833e-10
6.99957e-10
5.87048e-10
6.06897e-10
7.07951e-10
6.48967e-10
6.19829e-10
5.84592e-10
5.00911e-10
3.4175e-10
2.24087e-10
1.6356e-10
1.53477e-10
1.76533e-10
2.43963e-10
3.71915e-10
6.69486e-10
1.12167e-09
1.32817e-09
1.33522e-09
2.70164e-05
5.2567e-05
5.2567e-05
7.67672e-10
6.53786e-10
9.8577e-09
1.10155e-08
2.41825e-08
1.93489e-08
1.79055e-08
1.10037e-08
4.33804e-09
2.66359e-09
1.39178e-09
8.90368e-10
9.75307e-10
7.24085e-10
3.42643e-10
5.02711e-10
9.50804e-10
1.88794e-09
2.97214e-09
1.33983e-09
3.51261e-06
2.36888e-05
2.45683e-05
4.68076e-09
1.46996e-09
9.52193e-08
4.35853e-08
2.70075e-07
7.12054e-07
5.71721e-07
8.3025e-08
1.2732e-09
1.00685e-09
1.6478e-09
2.03459e-09
5.46613e-09
2.1627e-08
1.79174e-08
5.35087e-09
1.00779e-09
1.7613e-09
2.84211e-09
2.14923e-09
1.47763e-24
-2.88474e-24
3.90724e-25
6.7784e-09
1.89998e-09
1.35327e-09
1.3991e-09
1.33689e-09
9.45422e-07
7.34204e-07
1.06283e-07
3.87116e-10
3.89765e-10
2.71384e-09
6.6437e-10
6.14261e-10
2.72867e-08
3.28313e-08
1.35411e-08
2.14967e-09
1.963e-10
-2.16137e-13
5.81402e-28
-1.14138e-26
-6.56504e-26
-7.95002e-11
0.00155452
0.00112973
0.000288793
2.10596e-05
2.20966e-05
1.29887e-05
1.03209e-05
3.42948e-07
7.36971e-10
1.10238e-09
1.49527e-06
6.61508e-08
1.06109e-12
5.98178e-12
6.91313e-09
4.77603e-09
0.00227564
0.00286546
0.00395142
0.00418478
0.00521905
0.00230081
0.00159183
0.00723964
0.00723943
0.00570147
0.00201729
0.000153077
0.000192052
0.000379713
0.00025702
0.000105684
0.00025762
0.00163135
0.00174963
0.000488599
3.20041e-06
6.87243e-09
0.00897917
0.0137467
0.010859
0.00900338
0.0271347
0.0231185
0.0101871
0.00378412
0.00695343
0.00723069
0.00719156
0.00344403
0.0002244
0.00025581
0.000521051
0.000524983
0.000453697
0.00170521
0.00241355
0.000548484
0.000307803
0.00221784
0.0084804
0.00862041
0.00875825
0.0365133
0.0750351
0.0593449
0.0154927
0.00818937
0.00921305
0.000701544
0.00191336
0.00116011
0.000373586
0.000154999
0.000113253
0.000495702
0.000611882
0.000723651
0.000490797
0.00439091
0.0306293
0.0333201
0.0104477
0.00904317
0.0409491
0.1248
0.132333
0.128144
0.00630285
0.000602442
0.000625914
0.00518009
0.0271966
0.0271398
0.0271258
0.0271258
0.027139
0.0271367
0.0271469
0.0271497
0.0280092
0.0293404
0.030388
0.0308998
0.0320887
0.0348958
0.03662
0.0357876
0.0345194
0.0344756
0.0344753
0.0272031
0.0275929
0.0276295
0.0271188
0.0271238
0.0271345
0.0281417
0.0302039
0.05333
0.105206
0.12369
0.135624
0.153763
0.15852
0.157845
0.152233
0.128482
0.0974929
0.0808618
0.0297815
0.223612
0.194389
0.111717
0.108005
0.155771
0.221535
0.347863
0.474525
0.514526
0.498727
0.469383
0.470429
0.486371
0.497653
0.507583
0.507292
0.505132
0.499608
0.273463
0.471013
0.471015
0.451628
0.400935
0.279268
0.214152
0.277974
0.540693
0.546562
0.32301
0.112161
0.114329
0.174237
0.271323
0.343452
0.500829
0.516433
0.49124
0.466007
0.462076
0.397708
0.314216
0.254118
0.226844
0.214962
0.288974
0.545944
0.546862
0.19162
0.0525123
0.0505038
0.0503314
0.0516013
0.069056
0.162507
0.30691
0.131744
0.465762
0.0988549
0.0759124
0.221818
0.283167
0.28523
0.256979
0.153679
0.486343
0.546506
0.14272
0.060612
0.0507108
0.050112
0.0501121
0.0501116
0.0708071
0.0822233
0.0745873
0.44817
0.0241106
0.0138378
0.0141408
0.0143967
0.0151393
0.0152141
0.0145866
0.28921
0.433805
0.141959
0.0876076
0.05632
0.0501143
0.0501114
0.0501158
0.0502503
0.0561606
0.0610159
0.266837
0.0231549
0.0167875
0.0145192
0.0145158
0.014762
0.0146796
0.014594
0.0145939
0.222033
0.328633
0.26998
0.0546064
0.0501011
0.0501147
0.0503741
0.10938
0.36803
0.567466
5.17413e-05
5.10175e-05
5.03035e-05
5.12866e-05
5.94939e-05
0.000121449
0.00013665
0.000121868
0.000191979
0.000588499
0.0332235
0.0504462
0.0471875
0.0148227
0.0288307
0.140076
0.139777
0.132111
0.00636238
0.000791029
0.000600315
0.000601
0.0283284
5.1013e-05
5.03039e-05
4.95997e-05
-1.59413e-14
-7.03534e-14
-1.06684e-15
5.71717e-24
-1.37767e-22
0.000103416
0.000376738
0.00578582
0.0449284
0.0495869
0.042238
0.00745716
0.0263793
0.0222917
0.0045595
0.00275754
0.00336189
0.00478362
0.00321297
0.0186658
0.0367389
0.00454446
-9.89125e-25
-8.7029e-12
-1.77219e-11
-3.41282e-14
-1.32159e-12
1.17864e-23
0.000485729
0.000966724
0.00102685
0.0107306
0.0251341
0.0196228
0.0055746
0.00265398
0.00266605
0.00267946
0.0495137
0.229015
0.428847
0.500009
0.329023
0.420283
0.306796
0.130528
0.0658463
0.0343077
0.0130755
0.0110631
0.0081676
1.77471e-11
1.74593e-11
1.77471e-11
0.000820369
0.00218236
0.00201981
0.000657663
0.000657532
0.137001
0.611856
0.821494
0.921387
0.97284
0.963392
0.956719
0.883805
0.787578
0.641345
0.542339
0.498868
0.467236
0.377157
0.274239
0.178916
0.0820147
0.0130522
0.000283261
0.00028183
0.000283568
0.000282307
0.162298
0.769334
0.987216
0.997931
0.997913
0.998219
0.998216
0.998458
0.932206
0.977189
0.986532
0.985494
0.977112
0.948395
0.918836
0.914345
0.91363
0.853461
0.669611
0.439492
0.302646
0.283692
0.509289
0.824962
0.915666
0.929416
0.994688
0.998218
0.998213
0.998211
0.995918
0.967858
0.996109
0.997389
0.999462
0.999461
0.998374
0.997761
0.999132
0.999485
0.999448
0.996439
0.978318
0.942626
0.919456
0.91905
0.938887
0.964751
0.977059
0.987135
0.99306
0.996229
0.990683
0.978561
0.98598
0.997066
0.999433
0.999463
0.999408
0.99934
0.999459
0.999503
0.999477
0.999073
0.998766
0.998593
0.997325
0.992906
0.99032
0.989986
0.993441
0.993351
0.992206
0.975796
0.90871
0.768191
0.561306
0.984518
0.977535
0.999341
0.897237
0.744943
0.637161
0.576365
0.544651
0.532397
0.53971
0.544456
0.554717
0.577466
0.611693
0.654879
0.691357
0.69341
0.630238
0.509765
0.352123
0.183083
0.0499604
3.40891e-16
0.983032
0.943725
0.647677
0.238543
0.0616077
0.0203104
0.00566867
0.000697424
2.77354e-16
-4.6816e-28
-1.41863e-28
-6.08816e-23
-8.79324e-11
-3.08816e-09
-1.39674e-08
-2.27075e-08
-8.83479e-10
9.51877e-14
9.8248e-15
1.03546e-23
2.3567e-19
1.77442e-24
2.85616e-07
0.982399
0.489987
0.0510603
-1.01826e-17
1.09067e-17
4.23089e-21
-2.07316e-11
-1.21927e-10
7.47253e-08
7.79327e-09
5.71373e-08
1.46625e-06
3.42721e-08
1.38233e-08
-5.42174e-10
4.70739e-10
4.51609e-07
1.49666e-06
1.81964e-06
5.77666e-07
5.79135e-07
1.69926e-06
2.29928e-06
0.624856
0.0432869
1.37686e-07
1.22625e-07
4.42154e-08
1.42726e-20
4.96175e-08
8.82091e-08
4.4524e-08
5.15344e-09
4.19342e-09
4.76699e-08
4.69319e-08
3.24806e-08
9.39249e-07
5.93279e-06
7.40508e-06
6.33906e-06
7.39889e-06
3.08888e-06
1.73557e-07
1.73927e-06
5.38207e-06
0.0159173
1.50361e-06
2.97538e-06
3.52032e-06
9.86536e-07
7.33877e-08
5.3114e-08
3.1704e-08
2.14132e-08
4.21343e-07
1.71522e-06
1.64278e-06
4.45505e-07
1.8844e-10
1.86635e-07
1.05239e-08
7.11289e-06
2.12584e-05
2.14603e-05
1.96442e-05
1.37626e-06
6.53511e-07
2.78236e-06
6.06307e-07
1.44249e-06
4.04659e-06
2.95843e-06
4.13805e-07
1.31114e-07
5.78611e-08
7.51269e-08
1.30984e-05
1.87226e-05
9.54088e-06
1.24677e-07
1.63921e-08
7.36411e-10
3.11344e-10
9.95456e-09
2.5838e-08
1.89796e-06
1.8533e-05
1.05965e-05
1.79047e-06
2.71006e-06
4.93534e-05
1.98653e-08
5.50033e-07
1.12619e-06
2.47631e-07
1.79627e-07
2.65419e-07
9.62414e-06
2.46629e-05
2.52391e-05
1.90484e-05
1.43402e-05
1.12692e-05
3.54018e-06
2.68608e-07
1.92088e-05
2.61658e-05
2.5503e-05
2.15613e-05
3.99137e-06
2.7551e-06
1.85801e-06
2.77953e-05
6.02444e-05
1.96398e-08
2.87157e-08
7.75362e-09
8.04364e-09
3.74261e-06
1.05817e-05
1.09835e-05
5.63684e-06
4.8393e-05
7.31009e-05
7.26272e-05
7.35293e-05
7.3449e-05
4.89459e-05
4.2714e-05
1.8473e-05
4.58005e-06
1.37068e-05
1.53014e-05
1.52525e-05
1.95081e-06
7.10012e-08
4.9925e-08
2.06235e-08
8.3365e-09
7.50801e-09
7.75119e-09
5.83396e-06
9.16451e-06
1.79881e-06
1.95235e-06
6.28276e-05
6.99229e-05
5.9216e-05
2.71115e-05
2.19877e-05
1.48365e-05
8.70171e-06
4.9355e-06
2.97195e-06
1.75579e-07
6.7647e-08
2.82712e-08
1.1922e-08
8.62785e-09
1.34644e-07
2.02751e-08
6.81721e-09
6.81884e-09
1.16408e-07
1.05609e-06
3.33767e-07
2.36784e-07
8.56358e-06
1.29063e-05
8.31684e-06
1.29579e-06
8.67259e-09
8.82455e-09
8.67322e-09
8.82395e-09
1.76152e-08
1.04001e-08
1.04581e-08
1.02192e-08
1.12543e-08
9.79532e-09
8.53749e-09
2.08527e-07
2.0882e-08
5.72026e-09
8.68655e-09
5.32789e-08
2.05927e-08
2.01064e-08
6.46003e-07
9.57647e-07
1.14028e-08
1.13747e-08
1.13466e-08
1.13187e-08
1.32037e-08
1.10281e-08
1.10223e-08
1.32313e-08
1.22558e-08
1.00031e-08
9.95521e-09
1.10605e-08
1.09808e-08
7.25488e-09
5.54264e-09
2.14706e-08
4.43653e-09
7.61179e-09
2.05475e-08
2.47699e-08
4.35413e-08
1.63141e-07
2.99414e-08
2.96831e-08
2.1223e-08
1.29399e-08
1.06399e-08
1.07791e-08
8.44926e-09
6.47888e-09
5.38373e-09
6.06477e-09
6.30841e-09
6.53349e-09
5.90479e-09
5.57228e-09
5.32262e-09
5.40087e-09
2.23962e-08
3.32923e-09
5.90664e-09
1.40437e-08
3.04352e-08
5.2619e-08
4.37384e-08
5.24301e-08
4.88762e-08
2.69274e-08
1.24819e-08
7.51328e-09
6.03706e-09
4.86337e-09
3.93407e-09
3.29754e-09
3.01418e-09
3.18369e-09
3.43321e-09
3.85315e-09
4.18456e-09
4.46416e-09
5.35261e-09
2.24747e-08
2.51719e-09
4.0839e-09
9.36905e-09
1.97699e-08
3.45544e-08
3.77795e-08
3.95158e-08
2.84283e-08
1.33866e-08
6.43724e-09
4.32797e-09
3.53598e-09
2.89849e-09
2.38165e-09
2.00587e-09
1.81137e-09
1.78626e-09
1.92892e-09
2.25434e-09
2.48442e-09
3.21461e-09
3.69607e-09
2.15048e-08
2.09623e-09
2.7079e-09
5.08126e-09
8.96101e-09
1.40041e-08
1.53163e-08
1.33071e-08
8.33153e-09
4.1426e-09
2.4046e-09
1.9035e-09
1.58633e-09
1.28592e-09
1.07725e-09
9.69913e-10
9.47814e-10
1.01767e-09
1.16128e-09
1.41646e-09
1.73457e-09
1.91996e-09
2.576e-09
7.51724e-09
2.01522e-09
2.0511e-09
2.75101e-09
3.53415e-09
4.07817e-09
3.80825e-09
3.07118e-09
2.01695e-09
1.16741e-09
8.23837e-10
6.67412e-10
5.43541e-10
4.63597e-10
4.30157e-10
4.34445e-10
4.71692e-10
5.34746e-10
6.42095e-10
8.2642e-10
9.98187e-10
1.32162e-09
1.51442e-09
3.04202e-09
2.44574e-09
1.96757e-09
2.03114e-09
1.90298e-09
1.6962e-09
1.33528e-09
1.02646e-09
7.20526e-10
4.9186e-10
3.53777e-10
2.59211e-10
2.00783e-10
1.72886e-10
1.70763e-10
1.86684e-10
2.16013e-10
2.59861e-10
3.24918e-10
4.34807e-10
5.95176e-10
6.89792e-10
9.77213e-10
2.92387e-09
2.79523e-09
2.34404e-09
2.10532e-09
1.71739e-09
1.3947e-09
1.09295e-09
8.4168e-10
6.24036e-10
4.56042e-10
3.20972e-10
2.12392e-10
1.37428e-10
9.38062e-11
7.5876e-11
7.62085e-11
8.92309e-11
1.12009e-10
1.48536e-10
2.16301e-10
2.64295e-10
4.20801e-10
5.07283e-10
3.48222e-09
3.21179e-09
2.78308e-09
2.38891e-09
1.89744e-09
1.5489e-09
1.25057e-09
9.90347e-10
7.81571e-10
6.16584e-10
4.67594e-10
3.12603e-10
1.85852e-10
9.96424e-11
5.34921e-11
3.53647e-11
3.43062e-11
4.27713e-11
5.9377e-11
9.19645e-11
1.39273e-10
1.80027e-10
2.9277e-10
3.97911e-09
3.51525e-09
2.94109e-09
2.19385e-09
1.57091e-09
1.44955e-09
1.38916e-09
1.04435e-09
8.8769e-10
7.82514e-10
6.51179e-10
4.63756e-10
2.85066e-10
1.49722e-10
6.77149e-11
2.86583e-11
1.59922e-11
1.56674e-11
2.22524e-11
3.77272e-11
5.39614e-11
1.01986e-10
1.44707e-10
4.60209e-09
3.82756e-09
3.0322e-09
1.1013e-09
7.97969e-10
7.92703e-10
8.08331e-10
7.48406e-10
7.77521e-10
8.21238e-10
7.90498e-10
6.1565e-10
4.06672e-10
2.25508e-10
1.02381e-10
3.89728e-11
1.36533e-11
7.04289e-12
8.08109e-12
1.43563e-11
2.70188e-11
4.40735e-11
8.32163e-11
4.9187e-09
4.17214e-09
5.11359e-09
1.70681e-08
1.15479e-08
4.69092e-09
5.37462e-10
5.35277e-10
5.71383e-10
7.6515e-10
8.67154e-10
7.27837e-10
5.12473e-10
3.0349e-10
1.45888e-10
5.70862e-11
1.81698e-11
5.84041e-12
3.63373e-12
5.98627e-12
1.08818e-11
2.68439e-11
4.56152e-11
5.58339e-09
6.62341e-09
1.1831e-08
6.16982e-08
7.19651e-07
6.96971e-07
1.34957e-07
5.30121e-10
5.33772e-10
6.88907e-10
9.05531e-10
7.95011e-10
5.81129e-10
3.65107e-10
1.89164e-10
7.84419e-11
2.56479e-11
7.18437e-12
2.44446e-12
2.81297e-12
6.32775e-12
1.35049e-11
2.93393e-11
5.72753e-09
1.44533e-08
5.2462e-08
5.21072e-07
8.60054e-07
8.60044e-07
5.30642e-07
5.30833e-10
6.48668e-10
6.87577e-10
9.31805e-10
8.27943e-10
6.05233e-10
3.93354e-10
2.17659e-10
9.68969e-11
3.38715e-11
9.34095e-12
2.44221e-12
1.42749e-12
2.67802e-12
8.71519e-12
1.75323e-11
5.95815e-09
1.97002e-08
1.60917e-07
8.6008e-07
8.60064e-07
8.60055e-07
9.85885e-08
5.30378e-10
1.0994e-09
7.03362e-10
9.31149e-10
8.33244e-10
5.91669e-10
3.83524e-10
2.17322e-10
1.02931e-10
3.89932e-11
1.15426e-11
2.78741e-12
9.82293e-13
1.62431e-12
4.24173e-12
1.13945e-11
6.35558e-09
1.77289e-08
2.17743e-07
8.60064e-07
8.60054e-07
6.38782e-07
1.0026e-08
3.84773e-09
1.5657e-09
7.12912e-10
8.78286e-10
7.98522e-10
5.51319e-10
3.43919e-10
1.93441e-10
9.39694e-11
3.85827e-11
1.24448e-11
3.11542e-12
7.28176e-13
6.35308e-13
2.44679e-12
5.863e-12
6.54254e-09
1.40638e-08
1.62911e-07
5.89904e-07
6.43458e-07
1.94736e-07
6.13575e-08
2.37336e-08
2.22446e-09
7.88098e-10
7.42421e-10
7.04558e-10
4.7799e-10
2.8053e-10
1.51234e-10
7.43685e-11
3.18337e-11
1.12252e-11
2.98999e-12
6.64925e-13
3.60948e-13
9.09501e-13
3.20019e-12
6.51548e-09
1.27235e-08
5.32147e-08
9.00676e-08
9.69718e-08
6.69128e-08
8.02373e-08
3.74837e-08
3.58658e-09
1.01638e-09
6.30979e-10
5.65785e-10
3.77521e-10
2.11558e-10
1.054e-10
4.89766e-11
2.14148e-11
8.17297e-12
2.45905e-12
5.4985e-13
1.78574e-13
4.23781e-13
1.3389e-12
1.91431e-08
1.15622e-08
1.25013e-08
3.69568e-08
4.44842e-08
1.7309e-07
1.80759e-07
3.8609e-08
4.77092e-09
1.15405e-09
4.95205e-10
4.02935e-10
2.64846e-10
1.39625e-10
6.24802e-11
2.66756e-11
1.14974e-11
4.59752e-12
1.55357e-12
3.89589e-13
9.3146e-14
1.12307e-13
5.96651e-13
2.94182e-08
1.11678e-08
1.11904e-08
2.76203e-08
1.43516e-07
2.05895e-07
1.54749e-07
3.20039e-08
4.96702e-09
1.11054e-09
3.37809e-10
2.45584e-10
1.6247e-10
8.04861e-11
3.18211e-11
1.18714e-11
4.63598e-12
1.88073e-12
7.07945e-13
2.13242e-13
4.97519e-14
4.5344e-14
1.8288e-13
2.94186e-08
1.11692e-08
1.24025e-08
1.10928e-07
1.83599e-07
1.64368e-07
3.37079e-08
6.36727e-09
1.71877e-09
4.81061e-10
1.59042e-10
1.22475e-10
8.17787e-11
3.83899e-11
1.35749e-11
4.28184e-12
1.41371e-12
5.14544e-13
2.15583e-13
8.49099e-14
2.3748e-14
1.24021e-14
5.55842e-14
2.2634e-08
1.7086e-08
7.88523e-08
1.4944e-07
1.42175e-07
3.56491e-08
4.46053e-09
5.45057e-10
2.12169e-10
1.00358e-10
4.74315e-11
4.56318e-11
3.23738e-11
1.49985e-11
4.99846e-12
1.2844e-12
3.18547e-13
9.27896e-14
3.93944e-14
2.3611e-14
7.63508e-15
3.97043e-15
1.49568e-14
1.85335e-08
1.70363e-08
1.25736e-07
1.30556e-07
4.40335e-08
6.52634e-09
8.81929e-10
1.12451e-10
5.76821e-11
2.34376e-11
1.01829e-11
1.11223e-11
8.71667e-12
4.16516e-12
1.2883e-12
2.78994e-13
4.87522e-14
9.44671e-15
4.24314e-15
4.10889e-15
1.92698e-15
1.0812e-15
3.78839e-15
1.71208e-07
1.97625e-07
1.17669e-07
3.46546e-08
6.32082e-09
1.10357e-09
1.60649e-10
1.08524e-11
1.17869e-11
2.4465e-12
7.62421e-13
1.36028e-12
1.21937e-12
5.99014e-13
1.75894e-13
3.13452e-14
3.77621e-15
4.8462e-16
2.70444e-16
4.62687e-16
4.4643e-16
2.95518e-16
8.93611e-16
0.433127
0.454486
0.454617
0.454579
0.412829
0.454761
0.454633
0.454679
0.169298
0.157276
0.158642
0.170813
0.937757
0.925712
0.907436
0.909943
0.998906
0.99885
0.998592
0.998721
0.998677
0.998262
0.995497
0.994465
0.962157
0.910404
0.846009
0.79112
0.357257
0.225159
0.13763
0.0842945
1.42953e-26
8.90892e-26
-7.59043e-26
4.45158e-25
2.21963e-08
5.97773e-08
1.18963e-07
1.79285e-07
1.55494e-08
1.4723e-08
1.08168e-07
2.3265e-07
8.05547e-06
1.84005e-05
1.06976e-05
3.00639e-06
1.32758e-05
5.92814e-05
6.01485e-05
6.25666e-05
6.11729e-05
6.1174e-05
6.00335e-05
6.16793e-05
6.10152e-05
6.10899e-05
2.80917e-05
1.58942e-07
3.759e-08
8.77696e-08
2.40577e-08
2.59543e-08
1.89465e-07
3.80489e-07
4.67649e-07
2.77569e-07
4.44854e-07
4.59851e-07
4.46333e-07
8.63529e-08
2.64304e-08
3.45054e-08
6.86406e-08
6.76488e-08
5.03526e-09
6.35207e-09
5.31596e-08
1.28636e-07
5.86064e-09
1.23244e-08
2.41602e-08
2.27398e-08
4.93082e-09
5.25991e-09
4.39203e-09
5.5903e-09
2.76628e-09
2.81401e-09
4.394e-09
3.95073e-09
1.87959e-09
2.11492e-09
2.08205e-09
2.75809e-09
1.14438e-09
1.1738e-09
1.51123e-09
1.47928e-09
6.90825e-10
8.02433e-10
8.02138e-10
9.88362e-10
3.72988e-10
4.16505e-10
5.48101e-10
5.45712e-10
2.17074e-10
2.73983e-10
2.96122e-10
3.69746e-10
1.27533e-10
1.52583e-10
2.07504e-10
2.2615e-10
8.11751e-11
1.09758e-10
1.30006e-10
1.67913e-10
5.1979e-11
6.91576e-11
9.94931e-11
1.14653e-10
3.47408e-11
5.27076e-11
6.47851e-11
8.89339e-11
2.21303e-11
3.10007e-11
4.73318e-11
5.77689e-11
1.39578e-11
2.06069e-11
2.75557e-11
4.01593e-11
6.84399e-12
1.00072e-11
1.6692e-11
2.16401e-11
3.68645e-12
5.55489e-12
8.22327e-12
1.28717e-11
1.47043e-12
2.34544e-12
4.26099e-12
5.81159e-12
6.27116e-13
9.89455e-13
1.56719e-12
2.61683e-12
1.75975e-13
3.14277e-13
5.85792e-13
8.62892e-13
5.30391e-14
9.33575e-14
1.59566e-13
3.02646e-13
1.35665e-14
2.53122e-14
4.99175e-14
8.53387e-14
3.38936e-15
6.62337e-15
1.30293e-14
2.13177e-14
0.235219
0.0284442
0.0235632
0.0453065
0.0955321
0.0707716
0.0370592
0.0162452
0.179318
0.375497
0.341545
0.139451
0.0538849
0.180687
0.475531
0.748394
0.918511
0.971766
0.988296
0.367551
0.21262
0.282916
0.647086
0.765889
0.71647
0.544273
0.312457
0.624948
0.783116
0.578103
0.367156
0.576233
0.816483
0.941787
0.989296
0.989439
0.990869
0.99087
0.263076
0.48687
0.870576
0.970723
0.985385
0.976758
0.81983
0.506731
0.646142
0.936165
0.935859
0.902631
0.918059
0.93337
0.991731
0.984785
0.987173
0.990863
0.990867
0.938496
0.95531
0.989677
0.997936
0.998256
0.998378
0.885296
0.486382
0.361423
0.361414
0.519286
0.92594
0.988994
0.996772
0.991867
0.96903
0.964922
0.985035
0.988773
0.99895
0.998993
0.998993
0.998993
0.998993
0.998993
0.998993
0.955963
0.772109
0.620313
0.640738
0.865705
0.971534
0.9973
0.997258
0.973507
0.779939
0.976863
0.989856
0.996913
0.998977
0.998993
0.998993
0.998993
0.998846
0.998798
0.998805
0.998604
0.991965
0.957655
0.949966
0.976832
0.997299
0.997298
0.979434
0.730631
0.946428
0.989865
0.740239
0.719409
0.759519
0.738853
0.715839
0.691476
0.693339
0.703013
0.728629
0.75817
0.821706
0.880412
0.913385
0.935919
0.961966
0.96764
0.732055
0.896181
0.989865
0.0456707
0.028653
0.0468916
0.0388674
0.0320706
0.0227453
0.0201824
0.0177081
0.0200961
0.0304343
0.0544055
0.0967295
0.13127
0.165284
0.316779
0.609533
0.334332
0.577008
0.929757
3.35009e-25
4.32229e-25
7.61091e-15
8.61997e-18
1.11112e-17
-3.75329e-26
-9.40623e-11
-3.23972e-11
5.179e-10
6.04637e-08
3.3556e-09
1.46954e-08
-5.52024e-09
-9.24304e-14
0.00062701
0.0350202
0.00466411
0.102387
0.180987
1.88323e-07
2.0574e-07
2.06044e-07
5.58687e-10
8.85037e-09
7.66631e-08
7.50941e-08
3.23972e-11
1.41725e-06
5.98695e-05
9.5791e-05
4.18219e-05
9.88043e-07
-5.33986e-14
-6.48817e-22
-1.34862e-20
-4.44588e-27
2.54499e-29
-4.1593e-27
1.87216e-07
2.79208e-07
1.07593e-06
1.33677e-06
8.75339e-07
1.97292e-07
2.47076e-09
3.19038e-11
2.62032e-08
7.44317e-05
0.000144536
0.000147109
0.000120931
4.23216e-06
-9.26428e-15
1.6239e-23
8.80707e-09
1.01564e-08
3.40369e-09
2.45035e-07
3.74764e-07
9.27802e-07
5.01142e-06
5.00175e-06
2.09006e-06
7.73961e-07
4.30274e-10
3.63136e-08
3.12599e-08
1.20088e-05
0.000148135
0.000192601
0.00019232
0.000152371
3.34876e-05
2.38333e-09
4.41319e-09
3.23332e-09
1.24034e-05
4.38905e-06
5.62702e-06
4.17289e-06
6.39797e-06
1.07941e-05
1.08263e-05
6.45286e-06
2.63278e-06
4.94142e-07
3.62263e-07
3.66718e-07
4.41928e-05
0.000209456
0.000217987
9.57025e-05
2.37597e-09
4.30836e-09
1.68266e-08
3.93763e-05
1.26312e-05
2.45447e-05
2.60444e-05
8.56437e-06
4.26513e-06
1.22761e-05
1.95893e-05
1.34546e-05
5.10452e-06
1.35326e-06
5.71498e-07
5.79872e-07
2.08841e-05
0.000218076
3.96515e-05
2.38333e-09
1.17344e-08
2.9966e-08
7.608e-09
7.64453e-09
2.3906e-05
3.63836e-05
3.81773e-05
1.30466e-05
4.45477e-07
1.59109e-05
2.88741e-05
2.53925e-05
2.28587e-06
1.81178e-05
5.8975e-05
0.000145575
0.000184739
9.32458e-08
2.37597e-09
4.10582e-07
9.72341e-07
8.32887e-09
7.59976e-09
3.63881e-05
4.07759e-05
3.88601e-05
4.74824e-06
4.21248e-07
5.1677e-06
2.88077e-05
2.15008e-05
4.69687e-07
2.43313e-05
0.000283377
0.000284583
0.000106714
1.32661e-06
2.27745e-05
0.000137841
0.000155621
2.34744e-07
1.52816e-06
1.81335e-05
1.9019e-05
1.05079e-05
1.89172e-06
1.31612e-06
1.1543e-05
2.65901e-05
1.71119e-05
4.62296e-07
3.89289e-05
0.000285162
0.000285632
0.000196202
1.37541e-06
0.000105036
0.000236086
0.000236086
1.0788e-06
1.4801e-06
1.87608e-06
1.63217e-05
2.08378e-05
2.14077e-05
2.14369e-05
2.15338e-05
1.39269e-05
1.86986e-06
4.43223e-07
2.85342e-08
0.000171417
0.000285498
0.000211345
1.35474e-06
0.000110996
0.000236086
0.000236086
2.03189e-06
3.26178e-06
3.34612e-06
4.63496e-06
7.71944e-06
7.91592e-06
5.93147e-06
3.49154e-06
2.55738e-06
2.70751e-06
2.13467e-06
2.75955e-08
3.48198e-05
0.000280066
0.000122605
1.28239e-06
1.51397e-05
0.000232629
0.000236086
8.96938e-09
9.10599e-09
9.18722e-09
9.14191e-09
9.15705e-09
9.07211e-09
4.59477e-07
1.23816e-06
1.20936e-06
1.15303e-06
6.07575e-07
4.12303e-08
2.29664e-08
4.74425e-05
8.17462e-06
3.58173e-06
5.20494e-05
6.44232e-05
0.00017765
8.84703e-09
9.11369e-09
1.14097e-08
1.53526e-08
4.34246e-08
2.32671e-07
3.996e-07
3.49631e-07
2.20196e-07
1.43389e-07
8.38758e-08
3.33046e-08
2.29837e-08
2.29664e-08
2.29837e-08
3.48821e-06
7.52347e-05
2.49379e-05
2.49476e-05
8.09029e-09
9.00879e-09
1.05788e-08
2.10121e-08
6.42749e-08
1.43152e-07
2.64979e-07
2.63897e-07
2.09124e-07
1.22821e-07
4.4908e-08
3.15615e-08
2.94576e-08
2.29862e-08
2.94573e-08
3.04678e-08
2.61818e-05
2.78482e-05
0.00012977
5.05928e-09
5.78086e-09
7.14605e-09
1.21975e-08
2.69123e-08
6.37024e-08
1.24645e-07
1.38863e-07
9.44998e-08
4.68091e-08
2.42122e-08
2.18602e-08
2.20685e-08
3.13637e-08
3.04665e-08
8.08533e-07
4.00115e-08
5.13909e-05
0.000168348
2.6628e-09
3.28505e-09
3.65324e-09
4.14793e-09
4.31958e-09
5.96084e-09
7.07901e-09
8.92816e-09
1.09859e-08
1.09468e-08
1.03235e-08
1.40627e-08
1.29364e-08
1.88464e-08
3.11491e-08
9.91447e-07
4.18783e-08
2.89483e-05
0.000166385
1.71662e-09
1.94113e-09
2.17247e-09
2.27186e-09
2.07576e-09
2.08246e-09
2.10377e-09
3.01112e-09
4.43316e-09
5.61137e-09
6.77804e-09
1.09552e-08
9.56388e-09
4.12178e-09
1.40112e-08
9.82101e-07
1.63071e-07
3.33435e-09
2.55067e-05
9.95514e-10
1.19849e-09
1.36913e-09
1.53231e-09
1.74308e-09
2.1055e-09
2.70565e-09
3.41774e-09
4.24158e-09
5.04699e-09
5.78342e-09
7.57157e-09
1.0175e-08
1.10905e-09
1.11395e-09
1.25916e-07
1.27682e-08
3.3355e-09
1.00643e-08
6.44589e-10
7.85445e-10
9.36095e-10
1.11807e-09
1.35348e-09
1.68934e-09
2.20417e-09
2.88146e-09
3.69745e-09
4.52106e-09
5.42656e-09
6.71494e-09
6.69552e-09
3.45083e-08
3.41959e-07
1.03513e-06
3.36575e-07
6.32868e-08
2.11831e-07
4.0054e-10
5.2983e-10
6.68568e-10
8.45175e-10
1.07593e-09
1.37841e-09
1.82006e-09
2.42189e-09
3.16406e-09
4.00544e-09
5.05952e-09
7.03375e-09
6.69432e-09
3.72777e-07
1.17433e-06
1.20076e-06
9.94461e-07
1.16224e-07
4.25218e-06
2.78626e-10
3.82735e-10
5.15853e-10
6.81804e-10
8.90195e-10
1.16984e-09
1.55955e-09
2.10799e-09
2.78614e-09
3.59767e-09
4.53402e-09
6.3824e-09
2.30812e-08
1.20443e-07
4.6222e-07
5.42651e-07
3.96263e-07
1.83098e-07
5.17012e-06
1.95833e-10
2.9234e-10
4.13568e-10
5.67948e-10
7.67258e-10
1.03274e-09
1.39816e-09
1.93241e-09
2.67324e-09
3.54831e-09
4.47857e-09
5.58017e-09
1.54424e-08
9.10498e-08
7.24148e-07
4.276e-07
5.79559e-08
5.27365e-08
2.06807e-06
1.4936e-10
2.28194e-10
3.35134e-10
4.7359e-10
6.58037e-10
9.04811e-10
1.26704e-09
1.83637e-09
2.7362e-09
3.98225e-09
5.22873e-09
5.85025e-09
1.07744e-08
1.02913e-07
3.43249e-06
6.92469e-06
1.13901e-06
5.29554e-08
5.96195e-08
1.11112e-10
1.75067e-10
2.63912e-10
3.79008e-10
5.34774e-10
7.5888e-10
1.0962e-09
1.68172e-09
2.73705e-09
4.52406e-09
6.96212e-09
8.31291e-09
9.54104e-09
1.16502e-07
4.15047e-06
7.23838e-06
6.887e-06
2.34721e-07
4.68803e-07
7.97466e-11
1.27099e-10
1.93196e-10
2.84489e-10
4.08087e-10
5.89465e-10
8.81114e-10
1.42056e-09
2.49434e-09
4.72339e-09
9.05446e-09
1.47846e-08
1.48994e-08
4.80109e-08
1.6404e-06
7.25505e-06
7.23015e-06
6.64147e-06
5.06822e-06
5.18345e-11
8.66327e-11
1.32705e-10
1.97575e-10
2.8817e-10
4.22459e-10
6.50433e-10
1.08836e-09
1.99932e-09
4.02449e-09
9.81197e-09
2.49268e-08
4.44994e-08
4.45002e-08
1.10021e-07
3.05669e-06
7.24666e-06
7.12503e-06
1.76973e-06
3.23627e-11
5.31155e-11
8.35845e-11
1.26032e-10
1.86672e-10
2.79918e-10
4.41585e-10
7.47343e-10
1.36961e-09
2.84246e-09
6.93538e-09
2.74945e-08
9.0185e-08
1.26838e-07
7.59985e-08
1.47066e-07
2.07006e-06
1.43825e-06
6.09422e-08
1.71593e-11
2.9715e-11
4.76014e-11
7.31096e-11
1.10302e-10
1.69701e-10
2.75411e-10
4.76872e-10
8.83797e-10
1.73043e-09
3.72834e-09
1.46132e-08
8.10778e-08
1.76543e-07
1.55755e-07
4.29268e-08
5.09931e-08
4.15513e-08
3.86201e-08
8.38735e-12
1.48411e-11
2.43951e-11
3.8229e-11
5.95392e-11
9.46971e-11
1.58146e-10
2.84115e-10
5.45252e-10
1.08135e-09
2.20508e-09
5.62941e-09
2.75558e-08
1.43099e-07
2.11013e-07
1.20596e-07
2.70503e-08
2.70073e-08
1.34638e-07
3.56072e-12
6.61009e-12
1.11476e-11
1.80822e-11
2.93023e-11
4.8298e-11
8.3587e-11
1.56238e-10
3.09926e-10
6.32209e-10
1.29324e-09
2.62987e-09
8.38574e-09
4.65778e-08
1.97865e-07
2.40139e-07
8.89436e-08
5.40856e-08
2.24412e-07
1.39382e-12
2.57185e-12
4.49154e-12
7.63905e-12
1.29067e-11
2.22828e-11
4.02251e-11
7.74175e-11
1.59518e-10
3.50839e-10
7.43746e-10
1.49364e-09
2.8789e-09
1.2071e-08
9.03421e-08
2.48042e-07
2.37567e-07
1.89067e-07
2.27707e-07
4.47482e-13
8.61105e-13
1.57039e-12
2.82737e-12
5.12435e-12
9.44398e-12
1.7948e-11
3.59642e-11
7.83626e-11
1.78721e-10
4.10066e-10
9.18022e-10
2.01119e-09
4.8591e-09
2.27113e-08
1.51871e-07
2.4775e-07
2.46865e-07
1.00277e-07
1.23774e-13
2.48389e-13
4.71929e-13
9.0125e-13
1.76047e-12
3.47994e-12
6.89212e-12
1.43995e-11
3.21466e-11
7.60466e-11
1.85108e-10
4.3756e-10
1.0005e-09
2.2127e-09
7.67011e-09
4.31866e-08
1.89316e-07
2.25498e-07
1.27551e-08
3.08331e-14
6.1936e-14
1.21214e-13
2.40717e-13
4.85893e-13
9.69056e-13
2.02156e-12
4.27705e-12
9.23938e-12
2.18233e-11
5.3757e-11
1.35534e-10
3.25724e-10
7.26256e-10
1.60285e-09
5.35959e-09
2.08183e-08
3.6125e-08
4.32354e-09
)
;

boundaryField
{
    leftWall
    {
        type            zeroGradient;
    }
    rightWall
    {
        type            zeroGradient;
    }
    lowerWall
    {
        type            zeroGradient;
    }
    atmosphere
    {
        type            inletOutlet;
        inletValue      uniform 0;
        value           nonuniform List<scalar> 
46
(
1.71208e-07
1.97625e-07
1.17669e-07
3.46546e-08
6.32082e-09
1.10357e-09
1.60649e-10
1.08524e-11
0
0
0
0
0
0
0
0
0
0
0
0
0
2.95518e-16
8.93611e-16
3.38936e-15
6.62337e-15
0
0
0
0
0
0
0
0
0
0
0
0
0
0
0
0
0
5.35959e-09
2.08183e-08
3.6125e-08
4.32354e-09
)
;
    }
    defaultFaces
    {
        type            empty;
    }
}


// ************************************************************************* //
