/*--------------------------------*- C++ -*----------------------------------*\
| =========                 |                                                 |
| \\      /  F ield         | OpenFOAM: The Open Source CFD Toolbox           |
|  \\    /   O peration     | Version:  2312                                  |
|   \\  /    A nd           | Website:  www.openfoam.com                      |
|    \\/     M anipulation  |                                                 |
\*---------------------------------------------------------------------------*/
FoamFile
{
    version     2.0;
    format      ascii;
    arch        "LSB;label=32;scalar=64";
    class       volScalarField;
    location    "3.4";
    object      p_rgh;
}
// * * * * * * * * * * * * * * * * * * * * * * * * * * * * * * * * * * * * * //

dimensions      [1 -1 -2 0 0 0 0];

internalField   nonuniform List<scalar> 
2268
(
5726.13
5748.14
5786.51
5835.33
5887.51
5936.98
5979.68
6013.44
6036.29
6046.21
6041.77
6022.33
5987.76
5937.42
5871.43
5791.84
5703.21
5612.18
5525.37
5447.74
5382.96
5334.49
5306.9
5717.26
5740.8
5781.81
5832.62
5886.38
5937.07
5980.66
6015.22
6038.8
6049.24
6045
6025.67
5991.18
5940.69
5874.07
5793.3
5702.97
5610.33
5522.36
5443.95
5378.59
5329.28
5300.64
5703.18
5729.23
5773.72
5827.87
5884.58
5937.56
5982.8
6018.94
6043.96
6055.41
6051.74
6032.48
5998.11
5947.2
5879.17
5795.96
5702.1
5606.22
5515.97
5436.15
5369.7
5318.84
5287.65
5682.5
5712.3
5761.82
5821.09
5882.35
5938.87
5986.51
6024.98
6052.15
6065.09
6061.93
6042.53
6008.45
5957
5886.93
5800.13
5700.63
5599.93
5506.37
5424.75
5356.79
5303.55
5268.18
5648.53
5685.33
5744.59
5812.45
5880.29
5941.56
5992.21
6033.92
6063.8
6078.4
6075.84
6056
6022.46
5970.25
5897.33
5805.91
5691.11
5581.91
5480.22
5395.53
5322.61
5273.66
5201.96
4575.01
4783.98
5075.5
5379.79
5640.16
5828.98
5943.69
6024.63
6073.91
6093.64
6087.5
6066.52
6039.16
5987.77
5840.71
5566.76
5135.99
4635.94
4217.36
3843.13
3516.32
3187.74
3008.73
1512.11
1626.63
1830.55
2134.12
2524.4
2947.83
3310.2
3670.18
3979.97
4158.44
4171.29
4101.31
3871.22
3483.6
2975.56
2511.96
2048.49
1811.87
1590.19
1496.5
1471.64
1508.53
1550.48
1370.68
1364.98
1358.15
1349.03
1336.77
1325.32
1315.09
1306.85
1296.17
1309.49
1331.41
1314
1316.27
1314.01
1320.79
1308.64
1357.1
1304.7
1304.15
1330.26
1309.73
1359.94
1317.98
3201.83
3229.61
3302.84
3357.21
3353.89
3281.52
3148.75
2995.27
2839.5
2716.63
2644.26
2618.84
2625.83
2654.53
2685.42
2708.75
2728.15
2749.32
2765.44
3203.89
3232.8
3309.56
3369.21
3370.91
3299.92
3160.18
3001.19
2821
2656.52
2571.37
2538.35
2533.79
2560.84
2593.96
2619.23
2649.58
2695.16
2728.79
2851.04
2898.74
3051.35
3259.68
3272.59
3119.76
2832.98
2454.67
2112.48
1928.27
1782.68
1719.45
1783.78
1910.03
2005.53
2035.79
2042.84
2039.77
2051.05
1656.04
1739.29
2007.41
2192.91
2281.12
2157.18
1682.81
1435.23
1177.81
1055.83
1004.64
1034.78
1041.87
1043.09
1118.29
1238.67
1278.61
1254.17
1168.85
1015.24
1011.97
1014.07
1015.71
1029.91
1036.81
1075.72
1051.18
971.597
961.826
1021.29
1101.78
1119.47
1111.06
1064.41
1028.03
1004.96
983.156
1010.24
1008.59
1064.43
1078.48
1085.86
1088.51
1078.77
1083.4
1105.41
1045.36
957.309
1018.81
1066.06
1099.76
1074.01
1033.45
1012.2
1012.76
1017.62
1028.69
1003.77
1102.83
1147.69
1136.41
1113.11
1099.88
1089.96
1097.16
1100.9
974.485
1027.87
1033.04
1028.99
1003.67
1009.74
1011.47
1023.45
1045.77
1042.57
1037.97
1105.69
1116.2
1076.39
1037.94
1030.54
1027.6
1019.51
1122.79
1114.24
1052.33
1018.91
1031.77
1014.58
1001.63
1017.16
1038.31
991.131
948.806
1366.3
1362.01
1357.08
1350.34
1340.82
1329.28
1317.86
1307.84
1298.94
1290.38
1275.19
1265.19
1260.03
1262.35
1270.57
1308.13
1302.36
1298.41
1282.17
1248.12
1218.87
1173.39
1110.12
1364.88
1361.74
1356.29
1348.77
1341
1332.63
1324.3
1315.86
1307.57
1299.59
1290.99
1280.27
1276.03
1265.75
1278.61
1279.08
1267.01
1230.34
1210.29
1194.5
1180.01
1152.15
1105.46
1350.12
1361.29
1357.01
1350.12
1342.4
1335.71
1330.09
1321.04
1309.75
1303.8
1299.76
1305.89
1311.16
1298.4
1269.32
1270.66
1269.2
1205.74
1160.04
1079.29
1029.71
985.477
1001.45
1130.24
1209.56
1271.4
1300.42
1330.3
1324.51
1311.71
1295.98
1274.48
1250.74
1291.99
1329.26
1332.22
1312.04
1271.74
1253.2
1225.31
1008.52
837.556
769.824
772.586
776.212
754.594
899.264
963.133
1078.09
1104.94
1090.96
1053.95
1077.48
1121.85
1163.4
1217.84
1269.22
1306
1300.9
1251.13
1234.82
1205.64
888.529
815.842
755.351
752.688
752.665
748.991
740.028
872.725
894.456
916.917
880.817
827.401
802.257
792.881
801.314
811.89
840.787
903.724
1016.8
1081.28
1088.57
981.894
829.873
766.03
722.739
750.889
748.08
741.612
735.147
728.12
900.955
927.918
890.448
854.591
832.266
814.69
800.794
790.814
782.97
776.513
768.424
755.299
740.364
731.449
723.671
728.074
742.965
748.299
750.312
747.14
741.672
739.1
738.936
929.623
936.595
874.22
846.255
820.837
801.968
789.636
782.547
778.224
774.245
769.896
767.793
766.013
763.199
763.088
765.17
768.074
766.575
760.946
744.485
702.21
629.385
505.125
944.793
955.783
866.075
750.92
609.989
515.697
463.533
437.271
427.342
435.225
445.435
454.195
472.327
499.554
533.269
559.427
560.029
511.876
425.133
318.186
214.908
131.162
83.0184
948.633
955.586
587.14
206.215
55.3515
20.1123
7.38683
3.18378
1.94325
2.13765
3.30214
4.30669
3.46556
1.88147
2.23707
17.8977
36.1795
57.4336
68.5418
44.9547
34.3459
15.6874
0.0834959
980.353
570.163
97.2744
1.72509
0.367016
0.230949
0.187571
0.154328
0.0671123
0.0774374
0.122111
0.152606
0.114189
0.135488
0.081738
1.51786
16.1521
20.831
1.31155
-0.114525
-0.0773862
0.0103734
0.0896239
673.526
151.894
29.7062
0.580893
0.228025
0.107385
0.0716673
0.055351
0.0404244
0.0276964
0.0236824
0.0295141
0.0546027
0.0617438
-0.00770045
-0.20127
-0.301574
-0.26933
-0.157372
-0.109081
-0.0763328
0.0411744
0.135049
28.9137
9.16016
1.20398
0.164421
0.0224278
0.0285723
0.0383795
0.0327969
0.0245356
0.0200242
0.0208078
0.0223518
0.0228447
0.0122566
-0.0348929
-0.119877
-0.168529
-0.15994
-0.111856
-0.0658082
-0.0496875
-0.00765371
0.0472569
-0.144189
-0.118943
-0.065782
-0.0682444
-0.0318763
0.00281466
0.0129754
0.0132486
0.0269104
0.0323362
0.0215741
0.00776002
0.00205828
-0.0118995
-0.0388924
-0.0758937
-0.101233
-0.091091
-0.0460454
-0.0283008
-0.0147104
0.00877141
0.0986247
-0.166068
-0.14723
-0.109834
-0.0906623
-0.0514839
-0.0255584
-0.000668743
0.0242304
0.0287158
0.0270592
0.0376315
0.0301369
0.0158543
-0.013297
0.00238173
0.0502905
0.0501531
0.0634452
0.0692498
0.0488751
0.0302086
0.0473685
0.106526
-0.180061
-0.166537
-0.134673
-0.0997077
-0.065351
-0.0339761
-0.0173132
7.31515e-05
0.0726094
0.14121
0.141542
0.137464
0.118261
0.12031
0.120649
0.091633
0.0843316
0.142341
0.142597
0.143101
0.0547233
0.0224408
0.0241511
-0.160717
-0.147081
-0.125746
-0.101909
-0.071455
-0.0469412
-0.0286664
-0.0104959
0.108081
0.124416
0.102206
0.026002
0.0325021
0.0482124
0.0741458
0.0568246
0.0344395
-0.0174197
-0.0173969
-0.0083422
0.00196178
0.0114883
0.0198823
-0.137369
-0.129848
-0.116295
-0.0990026
-0.0794291
-0.0618508
-0.045081
-0.021201
-0.00258288
-0.00871967
-0.0256828
-0.0283915
-0.0267004
-0.0172116
-0.00925482
-0.0159236
-0.0216536
-0.0172665
-0.0112059
-0.00383135
0.00407455
0.0114802
0.0180495
-0.122409
-0.117006
-0.106802
-0.0935162
-0.0789702
-0.0651346
-0.0525996
-0.0419223
-0.0382369
-0.0338606
-0.0308296
-0.0284647
-0.0260078
-0.0229798
-0.0219435
-0.0200208
-0.0167682
-0.0124781
-0.00714202
-0.00105621
0.00529561
0.0112708
0.016376
-0.108638
-0.104728
-0.0969664
-0.0867971
-0.0754611
-0.0643959
-0.0541279
-0.0460835
-0.0395907
-0.0347783
-0.031095
-0.0280769
-0.0252641
-0.0226688
-0.0199442
-0.0169432
-0.0134474
-0.00932318
-0.00458468
0.000585894
0.00587252
0.0108785
0.0152357
-0.0965309
-0.0936379
-0.0875796
-0.0796941
-0.0707244
-0.0616119
-0.053171
-0.045767
-0.0397133
-0.034865
-0.0308832
-0.0274361
-0.0242375
-0.0211175
-0.0180179
-0.014775
-0.0112365
-0.00732173
-0.00304928
0.00145714
0.00598676
0.0102955
0.0141552
-0.0860663
-0.0838867
-0.0788589
-0.0726775
-0.0654423
-0.0579618
-0.0508195
-0.0443816
-0.0388632
-0.0341838
-0.0301339
-0.0264947
-0.0230719
-0.0197961
-0.0165594
-0.0132508
-0.00977488
-0.00608688
-0.00220529
0.00178685
0.0057526
0.00954415
0.0130143
-0.0768684
-0.0750765
-0.0711472
-0.0660355
-0.0600781
-0.0538853
-0.0478521
-0.0422789
-0.0373077
-0.0329114
-0.0289755
-0.0253533
-0.0219315
-0.0186527
-0.0154206
-0.0121615
-0.00881767
-0.00536347
-0.00181481
0.00177012
0.00530172
0.00868436
0.0118327
-0.0687761
-0.0673728
-0.0641313
-0.0598366
-0.0548553
-0.049666
-0.0445566
-0.0397369
-0.035315
-0.0312856
-0.0275789
-0.024107
-0.020811
-0.017628
-0.0144918
-0.0113541
-0.00817987
-0.00495656
-0.0016986
0.00155276
0.00473619
0.00779226
0.0106609
-0.061647
-0.0605697
-0.0578468
-0.0542081
-0.0499608
-0.0455304
-0.041165
-0.0370173
-0.0331247
-0.029488
-0.0260644
-0.02282
-0.019712
-0.0166825
-0.0136951
-0.0107186
-0.00773234
-0.00473251
-0.0017325
0.00123713
0.00413326
0.00691393
0.00954036
-0.0553874
-0.054546
-0.0522472
-0.0491546
-0.0455158
-0.0416858
-0.0378955
-0.0342894
-0.0308945
-0.0276375
-0.0245249
-0.021537
-0.018634
-0.0157887
-0.0129774
-0.010181
-0.00738934
-0.00460337
-0.00183601
0.000888472
0.00353796
0.00608696
0.0084915
-0.0498107
-0.0492208
-0.0472815
-0.0446521
-0.041531
-0.0382153
-0.0349053
-0.0317258
-0.0287236
-0.0258339
-0.0230221
-0.0202742
-0.0175803
-0.0149284
-0.0123034
-0.00969407
-0.00709613
-0.00451384
-0.00195989
0.000545426
0.00297777
0.00531725
0.0075195
-0.0448944
-0.0445258
-0.042904
-0.0406751
-0.0380003
-0.0351291
-0.0322314
-0.0294186
-0.0267263
-0.0241393
-0.0215819
-0.0190464
-0.0165511
-0.0140897
-0.0116512
-0.00922781
-0.0068189
-0.00443068
-0.00207537
0.000229526
0.00246468
0.0046088
0.00662739
-0.0404934
-0.0404005
-0.0390739
-0.0371964
-0.0349043
-0.0324137
-0.0298695
-0.0273699
-0.0249408
-0.0225693
-0.0202078
-0.0178586
-0.0155458
-0.013265
-0.0110068
-0.00876438
-0.00653819
-0.00433511
-0.00216693
-4.86914e-05
0.00200365
0.00396098
0.00580751
-0.0367421
-0.0367915
-0.0357345
-0.0341363
-0.0321797
-0.0300213
-0.0277828
-0.0255425
-0.0233199
-0.0210987
-0.0188945
-0.0167074
-0.0145602
-0.0124485
-0.0103621
-0.00829404
-0.00624382
-0.00421775
-0.00222702
-0.000285014
0.00159223
0.00337679
0.00505758
-0.0333387
-0.0336358
-0.0328098
-0.0314046
-0.0283081
-0.0264387
-0.0256126
-0.0238703
-0.0217951
-0.0196958
-0.0176237
-0.0155805
-0.0135864
-0.0116342
-0.00971217
-0.00781166
-0.00593083
-0.00407465
-0.00225343
-0.000479393
0.0012295
0.00284782
0.00437478
-0.0303367
-0.0307936
-0.0301361
-0.0280558
-0.0257925
-0.0238886
-0.0229599
-0.0222762
-0.0203196
-0.0183261
-0.0163667
-0.0144602
-0.0126129
-0.0108151
-0.00905223
-0.00731412
-0.00559701
-0.00390471
-0.00224649
-0.000633998
0.00091335
0.00237702
0.00375504
-0.0275693
-0.0280796
-0.0274992
-0.0250979
-0.0233142
-0.02153
-0.0204157
-0.0203643
-0.0188104
-0.0169465
-0.0150993
-0.0133266
-0.0116254
-0.00998079
-0.00837558
-0.00679717
-0.0052402
-0.00370732
-0.00220711
-0.000750429
0.000642285
0.00195411
0.00319161
-0.0248933
-0.0252816
-0.0249908
-0.0229555
-0.0214071
-0.0190002
-0.0143475
-0.0147048
-0.0170702
-0.0155048
-0.013789
-0.0121556
-0.0106054
-0.00911801
-0.00767255
-0.00625432
-0.00485659
-0.00348079
-0.00213511
-0.000830148
0.000412411
0.0015816
0.00267953
-0.0221655
-0.0222733
-0.0224857
-0.0212654
-0.0202953
-0.0181678
-0.0123531
-0.0106673
-0.0151466
-0.013957
-0.0123984
-0.0109213
-0.00953411
-0.00821218
-0.00693165
-0.00567692
-0.00444005
-0.00322154
-0.002029
-0.0008739
0.000223896
0.00125103
0.0022158
-0.019321
-0.0193723
-0.0197388
-0.019852
-0.0192931
-0.0175139
-0.0100607
-0.0123257
-0.0136569
-0.012296
-0.0108996
-0.00960498
-0.00839855
-0.00725257
-0.00614355
-0.00505636
-0.0039833
-0.00292423
-0.00188571
-0.000879902
7.46346e-05
0.000966609
0.00179814
-0.0167474
-0.0163409
-0.0168811
-0.0170028
-0.0165716
-0.0151202
-0.0103827
-0.0119383
-0.0116727
-0.0104743
-0.00929129
-0.00820794
-0.00719911
-0.0062381
-0.00530608
-0.00438823
-0.00348069
-0.00258365
-0.00170184
-0.000846005
-3.42568e-05
0.000719612
0.00142231
-0.0138974
-0.0136284
-0.0138356
-0.0138225
-0.0131508
-0.0120997
-0.0114419
-0.0106527
-0.009563
-0.00853975
-0.00760838
-0.00675518
-0.00595285
-0.00517899
-0.00442691
-0.0036762
-0.00293329
-0.00219831
-0.00147503
-0.000769997
-0.000104434
0.000515106
0.0010861
-0.0109706
-0.0108212
-0.010693
-0.0103173
-0.00974203
-0.00922362
-0.0088975
-0.00811203
-0.00731182
-0.0065744
-0.00590638
-0.00528578
-0.00468912
-0.00410202
-0.00351845
-0.00293486
-0.00235376
-0.00177713
-0.00120925
-0.000658147
-0.000136656
0.000345423
0.000788756
-0.00806786
-0.0079114
-0.0074426
-0.006938
-0.00658534
-0.00643911
-0.0060116
-0.00556073
-0.00508178
-0.00464141
-0.00423305
-0.00383418
-0.00343349
-0.00302488
-0.00260737
-0.00218348
-0.00175743
-0.00133329
-0.000915902
-0.000512828
-0.000133579
0.000217108
0.000531002
-0.00532801
-0.00512238
-0.00421906
-0.00387247
-0.00380824
-0.0036614
-0.00343743
-0.00319118
-0.00297157
-0.00278942
-0.00261213
-0.00241742
-0.00220055
-0.00196201
-0.00170396
-0.00143267
-0.00115412
-0.000874288
-0.000599795
-0.000339351
-0.000101801
0.000104608
0.000293057
-0.00103823
-0.00126997
-0.00152662
-0.00142999
-0.00121895
-0.00105706
-0.000955745
-0.00093499
-0.000949093
-0.000995177
-0.00102433
-0.00101857
-0.000975713
-0.000900602
-0.000798999
-0.000677971
-0.00054391
-0.000403374
-0.00026407
-0.000137103
-3.25539e-05
4.50525e-05
9.76228e-05
1018.37
973.656
958.237
981.951
966.541
950.555
949.274
951.885
1070.65
1073.22
1069.24
1058.56
734.295
742.801
734.953
721.31
734.947
737.276
737.126
731.456
724.053
740.594
776.695
786.193
741.797
757.756
712.932
670.661
399.133
311.513
246.525
200.295
63.872
67.8185
50.8657
23.1172
0.068639
0.0815842
0.0943304
0.117482
0.0683179
0.0785182
0.0970318
0.123527
0.105923
0.120153
0.129381
0.135581
0.101959
0.169646
0.190242
0.195103
0.187732
0.196832
0.181
0.209862
0.181928
0.209155
0.183407
0.158418
0.0295909
0.0341624
0.0408695
0.048607
0.0248328
0.0280001
0.0310485
0.0333135
0.0222682
0.0250648
0.0271028
0.0279737
0.0193921
0.0210198
0.0224452
0.0235213
0.0178863
0.0193586
0.0206735
0.0215587
0.0166217
0.018027
0.0192078
0.0201106
0.0153249
0.0166733
0.0178102
0.0187477
0.0139575
0.01522
0.016339
0.0172931
0.0126086
0.0137759
0.0148347
0.0157772
0.0113237
0.0123939
0.0133889
0.0142882
0.0101205
0.0111067
0.0120271
0.0128725
0.0090077
0.00990995
0.0107618
0.011546
0.00798828
0.00881495
0.00959341
0.0103159
0.00704925
0.00780175
0.00851614
0.00917693
0.00618904
0.00687567
0.00752343
0.00812611
0.00539949
0.00602019
0.00661019
0.00715583
0.00468095
0.00524194
0.00577
0.00626141
0.00401986
0.0045198
0.00499448
0.00543243
0.00341483
0.00385921
0.0042761
0.00466388
0.00285782
0.00324448
0.00361125
0.00394901
0.00235178
0.00268502
0.00299579
0.00328549
0.0018857
0.00216273
0.00242524
0.00266659
0.00146216
0.00168735
0.00189582
0.00209121
0.00107554
0.00124581
0.00140764
0.00155613
0.000732923
0.000851476
0.000958964
0.00106075
0.000409906
0.00047686
0.000538797
0.000594203
0.000118831
0.000123889
0.000128807
0.000137211
1049.62
1064.05
1049.02
1024.13
999.314
998.13
1004.36
1003.5
980.076
1056.27
1094.76
1069.19
1065.41
1034.35
951.337
888.201
882.827
851.912
832.55
986.788
1008.13
990.873
894.134
844.358
848.076
858.059
840.767
793.643
952.108
1011.53
1027.43
922.734
842.957
775.661
804.147
815.625
815.166
813.271
998.281
906.61
809.881
798.487
810.96
792.569
710.313
750.079
757.163
765.931
771.476
822.53
823.183
777.049
780.489
843.707
832.985
782.96
774.316
713.016
712.112
707.486
708.999
702.053
698.357
669.146
757.246
815.563
817.699
815.844
748.479
748.937
709.776
770.466
919.167
945.308
817.315
770.017
720.586
697.906
687.962
683.715
681.273
682.235
684.607
673.283
634.641
692.295
686.635
677.431
694.227
702.639
714.074
737.999
864.397
841.187
765.231
739.249
697.957
679.216
674.227
672.169
673.312
675.615
679.404
687.81
683.445
666.946
680.442
692.038
701.715
711.808
709.913
769.19
800.928
758.012
622.538
563.147
536.236
513.918
502.897
503.301
518.242
532.477
554.412
573.968
606.308
636.13
668.616
698.869
699.448
711.553
763.142
822.211
749.051
141.095
90.3569
60.8796
45.6685
45.6837
53.2853
63.7442
69.5491
74.3385
82.4721
100.784
130.468
161.215
188.659
295.762
498.504
568.724
722.957
701.288
3.73153
1.06496
3.87544
2.78413
0.857146
0.244922
0.24863
0.258313
0.268239
0.279947
0.296803
0.326763
1.67026
19.1237
43.8934
164.698
317.423
188.356
152.083
0.17068
0.212256
0.211513
0.208296
0.217353
0.222112
0.227236
0.251821
0.37115
0.550564
0.573494
0.445268
0.54516
0.61227
19.0791
36.1827
6.13816
0.105726
3.14071
0.16328
0.194499
0.202331
0.239948
0.259397
0.211422
0.204466
0.473692
0.778682
0.903622
0.810888
0.757451
0.542713
0.317844
0.110305
-0.00244277
0.00411086
0.0276148
0.0434598
0.157324
0.178467
0.187788
0.229327
0.25779
0.254264
0.273332
0.319501
0.30813
0.273168
0.262552
0.455258
0.585218
0.586459
0.537359
0.336931
0.124775
0.0570119
0.0735247
0.163659
0.239022
0.209751
0.173551
0.162578
0.17477
0.208426
0.203849
0.167292
0.136396
0.144469
0.149486
0.194937
0.41153
0.430106
0.40563
0.331328
0.116154
0.085841
0.20412
0.258527
0.323709
0.275222
0.151186
0.132203
0.131995
0.135446
0.130706
0.133389
0.140324
0.148614
0.150022
0.194235
0.420911
0.135205
0.193531
0.15585
0.0951443
0.157675
0.224693
0.303341
0.269699
0.252033
0.126171
0.105159
0.125748
0.148856
0.144679
0.125463
0.2119
0.262657
0.398542
0.405585
0.10888
0.109315
0.131392
0.117244
0.0528588
0.064578
0.198835
0.249257
0.17826
0.0986059
0.0973091
0.116007
0.162798
0.139912
0.115075
0.218359
0.550906
0.540292
0.364459
0.116789
0.194655
0.674898
0.729133
0.0389166
0.0695331
0.127587
0.135786
0.135312
0.122022
0.150932
0.169856
0.156652
0.128435
0.0994669
0.190535
0.56215
0.544898
0.454133
0.103191
0.560868
1.09249
1.10136
0.0315191
0.0408535
0.0930033
0.192037
0.183525
0.169091
0.174684
0.161868
0.109117
0.0871997
0.0871225
0.1025
0.382771
0.549109
0.420155
0.0877588
0.594373
1.10893
1.12165
0.0284064
0.0333486
0.0557752
0.0789694
0.0845718
0.0799664
0.0828991
0.0773416
0.0768282
0.0742357
0.0720628
0.0693108
0.151152
0.515027
0.270175
0.0772031
0.302921
0.999425
0.970362
0.0227676
0.0249136
0.0272938
0.030839
0.0362524
0.0420392
0.0488733
0.0540202
0.0556839
0.0575956
0.0569748
0.0545258
0.0517635
0.123538
0.171223
0.595316
0.720907
0.1907
0.351088
0.0213316
0.0234002
0.0257872
0.0289088
0.0327602
0.0369053
0.0413017
0.0445276
0.0464395
0.0471996
0.0469202
0.0451532
0.0415267
0.0361425
0.125187
0.670855
0.596534
0.131644
0.134469
0.0201094
0.0222148
0.0245096
0.0272367
0.0304478
0.0339812
0.037017
0.0393654
0.0407127
0.0409254
0.0400575
0.0380279
0.0344151
0.0290433
0.0372561
0.242766
0.283467
0.160716
0.577731
0.0187414
0.020866
0.0230586
0.02546
0.0280731
0.0307473
0.0331419
0.0348589
0.0357494
0.0357375
0.0347766
0.0328319
0.0297208
0.0247553
0.0164006
0.00705202
0.00215009
0.248393
0.666491
0.0172383
0.0193184
0.0213789
0.0235004
0.0256657
0.0277473
0.0295396
0.0308617
0.0315244
0.0314969
0.0306588
0.0290641
0.0267252
0.0231182
0.0175638
0.011892
0.00565398
0.133252
0.647104
0.015708
0.0176929
0.0196052
0.0214914
0.0233325
0.0250355
0.0264683
0.0275024
0.0280379
0.0279568
0.0272918
0.0260388
0.0242827
0.022004
0.0184388
0.0150655
0.0106598
0.0157896
0.0591807
0.0142171
0.0160808
0.0178397
0.0195225
0.0211112
0.0225399
0.0237177
0.0245516
0.0249667
0.0249109
0.0243981
0.0234756
0.0221455
0.0205011
0.018636
0.0163708
0.0133385
0.013136
0.0144408
0.0128019
0.0145317
0.0161397
0.0176444
0.0190306
0.0202515
0.0212426
0.0219393
0.0222898
0.0222619
0.0218445
0.0211802
0.0201873
0.0189958
0.0193993
0.0187001
0.0161316
0.0165374
0.0203023
0.0114756
0.0130688
0.0145327
0.0158805
0.0171005
0.0181591
0.0190111
0.0196118
0.0199279
0.0199476
0.0197026
0.019135
0.0184079
0.018247
0.0202007
0.0216178
0.0187854
0.0175414
0.0326188
0.0102419
0.0117007
0.0130287
0.0142374
0.0153178
0.0162462
0.0169907
0.017521
0.0178148
0.0178652
0.0176808
0.0172687
0.0168142
0.0163911
0.0165938
0.0217138
0.0259285
0.0195219
0.037466
0.00909765
0.0104267
0.0116277
0.0127119
0.0136729
0.0144938
0.0151526
0.0156286
0.0159081
0.0159898
0.0158887
0.0156473
0.0152789
0.0150321
0.0160268
0.0180792
0.0254215
0.0262783
0.0291353
0.00803786
0.00924163
0.0103239
0.0112957
0.0121525
0.0128826
0.0134708
0.013903
0.0141713
0.0142779
0.0142381
0.01408
0.0138405
0.0137694
0.020699
0.0282119
0.0234939
0.0251932
0.0230955
0.00705497
0.00813822
0.00910887
0.0099777
0.010742
0.0113937
0.011922
0.0123171
0.012575
0.0127006
0.0127098
0.0126248
0.0124767
0.0125322
0.021251
0.0280363
0.0283484
0.0224335
0.0187649
0.00614168
0.00710848
0.00797335
0.00874682
0.00942751
0.0100098
0.0104855
0.0108479
0.0110947
0.0112329
0.01128
0.0112581
0.0111759
0.0111397
0.0145962
0.0272895
0.0275211
0.0273867
0.023412
0.00529057
0.00614467
0.0069086
0.0075926
0.00819627
0.00871538
0.00914368
0.00947573
0.00971037
0.00985433
0.00992794
0.00996652
0.00998448
0.0099241
0.00998317
0.0167692
0.0266036
0.0265001
0.0141653
0.00449638
0.00524053
0.00590725
0.00650611
0.00703729
0.00749745
0.00788134
0.00818431
0.00840521
0.00854966
0.00863384
0.00871029
0.00886246
0.0089381
0.00878686
0.00890962
0.0135177
0.0121712
0.00904126
0.00375362
0.00439047
0.00496282
0.00547947
0.00594091
0.00634435
0.00668515
0.00695911
0.00716483
0.00730602
0.00739387
0.00746336
0.00764929
0.00790487
0.00787025
0.00760906
0.0076641
0.00777563
0.00787652
0.00305846
0.00359001
0.00406981
0.00450581
0.00489863
0.00524576
0.00554312
0.00578688
0.00597547
0.00611119
0.00620178
0.00626388
0.00635542
0.00668732
0.00690231
0.00671923
0.0065398
0.00661835
0.00694868
0.00240711
0.00283491
0.00322302
0.00357857
0.00390216
0.00419165
0.00444356
0.00465469
0.00482348
0.00495113
0.00504261
0.00510742
0.00516808
0.00531357
0.00575782
0.0059233
0.00558352
0.00553422
0.0059804
0.0017973
0.00212151
0.00241719
0.00269056
0.00294228
0.00317085
0.00337378
0.00354872
0.00369441
0.00381127
0.00390193
0.0039715
0.00402751
0.00409814
0.00435564
0.00482676
0.00483251
0.00470818
0.00479661
0.00122502
0.00144482
0.00164543
0.00183279
0.00200836
0.00217172
0.0023215
0.00245631
0.00257536
0.00267873
0.00276723
0.00284204
0.00290449
0.00295671
0.00303256
0.00342635
0.00369904
0.00368245
0.00325448
0.00068186
0.000794444
0.000896527
0.000994656
0.00109094
0.00118576
0.00127863
0.00136903
0.0014569
0.00154253
0.00162587
0.00170527
0.00177628
0.00183321
0.00188494
0.00197493
0.00235389
0.00242378
0.00181724
0.000150602
0.000158654
0.000161862
0.000166965
0.000177666
0.000196132
0.000223326
0.000259834
0.000306378
0.000364072
0.000433656
0.00051338
0.000596422
0.000668708
0.000707677
0.000661877
0.00061914
0.000608379
0.000546482
)
;

boundaryField
{
    leftWall
    {
        type            fixedFluxPressure;
        gradient        uniform 0;
        value           nonuniform List<scalar> 
50
(
5726.13
5717.26
5703.18
5682.5
5648.53
4575.01
1512.11
1370.68
1366.3
1364.88
1350.12
1130.24
899.264
872.725
900.955
929.623
944.793
948.633
980.353
673.526
28.9137
-0.144189
-0.166068
-0.180061
-0.160717
-0.137369
-0.122409
-0.108638
-0.0965309
-0.0860663
-0.0768684
-0.0687761
-0.061647
-0.0553874
-0.0498107
-0.0448944
-0.0404934
-0.0367421
-0.0333387
-0.0303367
-0.0275693
-0.0248933
-0.0221655
-0.019321
-0.0167474
-0.0138974
-0.0109706
-0.00806786
-0.00532801
-0.00103823
)
;
    }
    rightWall
    {
        type            fixedFluxPressure;
        gradient        uniform 0;
        value           nonuniform List<scalar> 
50
(
2765.44
2728.79
2051.05
1168.85
1010.24
1028.69
1042.57
948.806
832.55
813.271
774.316
770.017
765.231
758.012
749.051
701.288
152.083
3.14071
0.0434598
0.0735247
0.085841
0.0951443
0.117244
0.729133
1.10136
1.12165
0.970362
0.351088
0.134469
0.577731
0.666491
0.647104
0.0591807
0.0144408
0.0203023
0.0326188
0.037466
0.0291353
0.0230955
0.0187649
0.023412
0.0141653
0.00904126
0.00787652
0.00694868
0.0059804
0.00479661
0.00325448
0.00181724
0.000546482
)
;
    }
    lowerWall
    {
        type            fixedFluxPressure;
        gradient        uniform 0;
        value           nonuniform List<scalar> 
62
(
5726.13
5748.14
5786.51
5835.33
5887.51
5936.98
5979.68
6013.44
6036.29
6046.21
6041.77
6022.33
5987.76
5937.42
5871.43
5791.84
5703.21
5612.18
5525.37
5447.74
5382.96
5334.49
5306.9
5306.9
5300.64
5287.65
5268.18
5201.96
3008.73
1550.48
1317.98
1018.37
973.656
958.237
981.951
3201.83
3203.89
2851.04
1656.04
1015.24
1008.59
1003.77
1037.97
3201.83
3229.61
3302.84
3357.21
3353.89
3281.52
3148.75
2995.27
2839.5
2716.63
2644.26
2618.84
2625.83
2654.53
2685.42
2708.75
2728.15
2749.32
2765.44
)
;
    }
    atmosphere
    {
        type            totalPressure;
        rho             rho;
        psi             none;
        gamma           1;
        p0              uniform 0;
        value           nonuniform List<scalar> 
46
(
0
0
0
0
0
0
0
-4.73474e-07
-6.48404e-05
-0.000178482
-0.000281886
-0.000352188
-0.000384961
-0.000385168
-0.000359751
-0.00031484
-0.000255373
-0.000185875
-0.000112496
-4.59759e-05
-6.4711e-06
0
0
0
-5.50336e-07
-6.22059e-06
-2.12669e-05
-4.93185e-05
-0.000107968
-0.000174043
-0.000233721
-0.000280312
-0.00031167
-0.000327823
-0.00032947
-0.000317078
-0.000290345
-0.000248312
-0.000190762
-0.000121453
-5.20625e-05
-5.27267e-06
0
0
0
0
)
;
    }
    defaultFaces
    {
        type            empty;
    }
}


// ************************************************************************* //
