/*--------------------------------*- C++ -*----------------------------------*\
| =========                 |                                                 |
| \\      /  F ield         | OpenFOAM: The Open Source CFD Toolbox           |
|  \\    /   O peration     | Version:  2312                                  |
|   \\  /    A nd           | Website:  www.openfoam.com                      |
|    \\/     M anipulation  |                                                 |
\*---------------------------------------------------------------------------*/
FoamFile
{
    version     2.0;
    format      ascii;
    arch        "LSB;label=32;scalar=64";
    class       surfaceScalarField;
    location    "3.4";
    object      phi;
}
// * * * * * * * * * * * * * * * * * * * * * * * * * * * * * * * * * * * * * //

dimensions      [0 3 -1 0 0 0 0];

oriented        oriented;

internalField   nonuniform List<scalar> 
4432
(
2.24732e-06
-2.24734e-06
3.67042e-06
-1.42311e-06
4.99061e-06
-1.32019e-06
6.25891e-06
-1.26831e-06
7.45617e-06
-1.19726e-06
8.53246e-06
-1.0763e-06
9.43736e-06
-9.04905e-07
1.01567e-05
-7.19344e-07
1.06891e-05
-5.32431e-07
1.10133e-05
-3.24144e-07
1.11085e-05
-9.52262e-08
1.096e-05
1.48504e-07
1.05426e-05
4.17417e-07
9.83798e-06
7.04586e-07
8.87074e-06
9.67249e-07
7.71219e-06
1.15855e-06
6.41011e-06
1.30209e-06
5.03143e-06
1.37869e-06
3.65414e-06
1.3773e-06
2.34612e-06
1.30803e-06
1.24727e-06
1.09886e-06
3.17788e-07
9.29487e-07
3.17789e-07
1.37513e-06
-3.6225e-06
2.76004e-06
-2.80804e-06
4.12599e-06
-2.68614e-06
5.47535e-06
-2.61766e-06
6.78224e-06
-2.50413e-06
7.96606e-06
-2.2601e-06
8.96125e-06
-1.90007e-06
9.75759e-06
-1.51566e-06
1.03553e-05
-1.13013e-06
1.07349e-05
-7.03743e-07
1.08729e-05
-2.33247e-07
1.07621e-05
2.59312e-07
1.03716e-05
8.07898e-07
9.68604e-06
1.39013e-06
8.72357e-06
1.9297e-06
7.57682e-06
2.30528e-06
6.28114e-06
2.59775e-06
4.91702e-06
2.74281e-06
3.55006e-06
2.74426e-06
2.25651e-06
2.60159e-06
1.1936e-06
2.16179e-06
3.32206e-07
1.79089e-06
6.50018e-07
9.75678e-07
-4.59818e-06
2.23975e-06
-4.0721e-06
3.57187e-06
-4.01824e-06
4.93224e-06
-3.97802e-06
6.28439e-06
-3.85626e-06
7.52661e-06
-3.50231e-06
8.57174e-06
-2.94519e-06
9.41904e-06
-2.36296e-06
1.00709e-05
-1.782e-06
1.05013e-05
-1.13409e-06
1.06909e-05
-4.22924e-07
1.06225e-05
3.27744e-07
1.02713e-05
1.15911e-06
9.60656e-06
2.05482e-06
8.64158e-06
2.89467e-06
7.5173e-06
3.42956e-06
6.23174e-06
3.88331e-06
4.90507e-06
4.06948e-06
3.56949e-06
4.07984e-06
2.30654e-06
3.86454e-06
1.30154e-06
3.16679e-06
5.79343e-07
2.51309e-06
1.22936e-06
8.33809e-07
-5.43199e-06
1.99157e-06
-5.22986e-06
3.26709e-06
-5.29376e-06
4.60268e-06
-5.3136e-06
5.96665e-06
-5.22022e-06
7.23825e-06
-4.77391e-06
8.29679e-06
-4.00374e-06
9.17191e-06
-3.23808e-06
9.87772e-06
-2.48781e-06
1.03518e-05
-1.60812e-06
1.05634e-05
-6.34534e-07
1.05192e-05
3.71919e-07
1.01842e-05
1.49407e-06
9.52398e-06
2.71505e-06
8.53759e-06
3.88105e-06
7.45522e-06
4.51192e-06
6.17702e-06
5.16149e-06
4.91842e-06
5.32808e-06
3.60634e-06
5.39192e-06
2.34695e-06
5.12393e-06
1.32718e-06
4.18655e-06
6.1668e-07
3.2236e-06
1.84605e-06
8.46752e-07
-6.27874e-06
1.93492e-06
-6.31803e-06
3.15499e-06
-6.51382e-06
4.43627e-06
-6.59489e-06
5.79105e-06
-6.57501e-06
7.12138e-06
-6.10425e-06
8.20909e-06
-5.09146e-06
9.07426e-06
-4.10325e-06
9.78658e-06
-3.20014e-06
1.02939e-05
-2.11549e-06
1.05331e-05
-8.73677e-07
1.04834e-05
4.21633e-07
1.00987e-05
1.87878e-06
9.3367e-06
3.47704e-06
8.17024e-06
5.04752e-06
7.00797e-06
5.6742e-06
5.66425e-06
6.50523e-06
4.49659e-06
6.49574e-06
3.2794e-06
6.60912e-06
2.17711e-06
6.22621e-06
1.24822e-06
5.11544e-06
5.54522e-07
3.9173e-06
2.40057e-06
1.01919e-06
-7.2979e-06
2.11979e-06
-7.41862e-06
3.27445e-06
-7.66848e-06
4.40334e-06
-7.72379e-06
5.62256e-06
-7.79423e-06
6.94902e-06
-7.43072e-06
8.05812e-06
-6.20056e-06
8.81981e-06
-4.86494e-06
9.22916e-06
-3.60951e-06
9.38379e-06
-2.27012e-06
9.37199e-06
-8.61884e-07
9.25499e-06
5.38626e-07
8.86416e-06
2.26961e-06
8.16259e-06
4.17861e-06
6.81521e-06
6.3949e-06
5.50244e-06
6.98698e-06
4.12547e-06
7.88218e-06
2.62479e-06
7.9964e-06
1.2625e-06
7.9714e-06
3.83455e-07
7.10524e-06
2.99448e-07
5.19944e-06
1.09781e-06
3.11893e-06
3.49837e-06
1.347e-06
-8.64486e-06
2.36175e-06
-8.43334e-06
3.36684e-06
-8.67354e-06
4.31528e-06
-8.67221e-06
5.18771e-06
-8.66663e-06
6.22778e-06
-8.47077e-06
7.26927e-06
-7.24204e-06
8.07876e-06
-5.67442e-06
8.70199e-06
-4.23273e-06
8.69009e-06
-2.25823e-06
8.1352e-06
-3.07017e-07
7.31984e-06
1.35394e-06
6.20153e-06
3.38785e-06
4.60833e-06
5.77174e-06
1.97064e-06
9.03252e-06
-9.55729e-07
9.91328e-06
-3.01448e-06
9.94086e-06
-5.4544e-06
1.04362e-05
-6.63592e-06
9.15286e-06
-6.04239e-06
6.51166e-06
-5.34442e-06
4.50143e-06
-3.65411e-06
1.42862e-06
-1.55755e-07
2.24224e-06
-1.08871e-05
3.25283e-06
-9.44389e-06
3.57039e-06
-8.99106e-06
3.71733e-06
-8.81911e-06
3.61027e-06
-8.55954e-06
2.54233e-06
-7.4028e-06
-1.01735e-06
-3.68233e-06
-4.60407e-06
-2.08768e-06
-6.41999e-06
-2.41681e-06
-7.08295e-06
-1.59527e-06
-7.61825e-06
2.2825e-07
-8.94854e-06
2.68418e-06
-1.08007e-05
5.23999e-06
-1.3185e-05
8.15596e-06
-1.44655e-05
1.0313e-05
-1.45944e-05
1.00421e-05
-1.37745e-05
9.12091e-06
-1.23568e-05
9.01848e-06
-9.97936e-06
6.77535e-06
-8.03078e-06
4.56306e-06
-6.26547e-06
2.7361e-06
-4.54427e-06
-2.92604e-07
-4.70004e-06
-1.87049e-07
1.87043e-07
9.66457e-07
-1.15351e-06
2.80573e-06
-1.83928e-06
4.79424e-06
-1.98851e-06
5.99901e-06
-1.20478e-06
6.36647e-06
-3.67461e-07
5.70684e-06
6.59634e-07
4.34406e-06
1.36277e-06
2.52064e-06
1.82343e-06
1.07946e-06
1.44118e-06
6.5012e-07
4.29336e-07
9.79795e-07
-3.29678e-07
1.82061e-06
-8.40815e-07
3.35687e-06
-1.53626e-06
5.12481e-06
-1.76794e-06
5.77203e-06
-6.47222e-07
4.76878e-06
1.00326e-06
2.67506e-06
2.09372e-06
2.67506e-06
5.25719e-07
-3.38682e-07
2.01581e-06
-2.64361e-06
4.61829e-06
-4.44175e-06
6.8917e-06
-4.26193e-06
8.40929e-06
-2.72237e-06
9.17639e-06
-1.13457e-06
8.52726e-06
1.30877e-06
6.7277e-06
3.16233e-06
4.59109e-06
3.96003e-06
3.40048e-06
2.63179e-06
2.66863e-06
1.16118e-06
2.26862e-06
7.03209e-08
2.74239e-06
-1.31459e-06
3.76126e-06
-2.55513e-06
4.67177e-06
-2.67846e-06
4.9559e-06
-9.31352e-07
4.2707e-06
1.68846e-06
2.58419e-06
3.78023e-06
5.25926e-06
-8.4603e-07
5.07347e-07
7.14189e-07
-4.20382e-06
3.96342e-06
-7.69099e-06
6.61262e-06
-6.91112e-06
8.71373e-06
-4.82348e-06
1.02318e-05
-2.65263e-06
9.66047e-06
1.88008e-06
8.03654e-06
4.78627e-06
4.99375e-06
7.00281e-06
2.26273e-06
5.36281e-06
9.3459e-07
2.48933e-06
1.87702e-06
-8.72117e-07
3.48978e-06
-2.92736e-06
4.15206e-06
-3.21741e-06
4.12116e-06
-2.64755e-06
4.42625e-06
-1.23644e-06
4.61226e-06
1.50246e-06
3.01017e-06
5.38232e-06
8.26943e-06
-3.20374e-06
3.71108e-06
-2.01283e-06
-5.39474e-06
1.49555e-06
-1.11994e-05
5.13676e-06
-1.05524e-05
8.65388e-06
-8.34063e-06
1.28707e-05
-6.86948e-06
1.48355e-05
-8.47604e-08
1.73273e-05
2.29443e-06
1.41526e-05
1.01774e-05
2.60384e-06
1.69115e-05
-3.35913e-06
8.45224e-06
2.75139e-06
-6.98267e-06
9.62969e-06
-9.80569e-06
1.13697e-05
-4.9575e-06
9.97065e-06
-1.24848e-06
8.8235e-06
-8.93043e-08
7.0986e-06
3.22735e-06
3.06975e-06
9.41117e-06
1.13392e-05
-3.35267e-06
7.06375e-06
-5.48308e-06
-3.26434e-06
-5.01647e-06
-1.1666e-05
-1.60124e-06
-1.39676e-05
1.0756e-06
-1.10175e-05
2.75407e-06
-8.54796e-06
7.56802e-06
-4.89871e-06
1.5131e-05
-5.26857e-06
1.62696e-05
9.03886e-06
7.72644e-06
2.54547e-05
2.919e-06
1.32597e-05
4.71777e-06
-8.78143e-06
9.15593e-06
-1.42438e-05
1.28119e-05
-8.6135e-06
1.14844e-05
7.90399e-08
7.16332e-06
4.2318e-06
3.03149e-06
7.35919e-06
2.96919e-07
1.21457e-05
1.16361e-05
-9.56904e-06
1.66328e-05
-1.21586e-05
-6.74841e-07
-1.02724e-05
-1.35522e-05
-6.40808e-06
-1.78319e-05
-2.45923e-06
-1.49663e-05
3.70382e-07
-1.13776e-05
3.09825e-06
-7.6266e-06
8.40623e-06
-1.05766e-05
1.49142e-05
2.53091e-06
1.32706e-05
2.70982e-05
1.11475e-05
1.53828e-05
7.9248e-06
-5.5588e-06
6.97055e-06
-1.32896e-05
5.73824e-06
-7.3812e-06
3.00749e-06
2.80976e-06
7.05983e-07
6.53329e-06
-1.46646e-07
8.21181e-06
3.45987e-07
1.16531e-05
1.19821e-05
-8.91615e-06
2.55489e-05
-1.10207e-05
1.42969e-06
-7.81513e-06
-1.67578e-05
-3.58839e-06
-2.20587e-05
-7.59097e-07
-1.77957e-05
9.91633e-07
-1.31284e-05
2.53759e-06
-9.1726e-06
3.1506e-06
-1.11896e-05
8.95939e-06
-3.27792e-06
1.37384e-05
2.23192e-05
1.5328e-05
1.37932e-05
1.08184e-05
-1.04931e-06
4.76197e-06
-7.23317e-06
-1.13127e-06
-1.488e-06
-4.06773e-06
5.7462e-06
-4.40368e-06
6.86922e-06
-2.2058e-06
6.01392e-06
-7.8039e-07
1.02277e-05
1.12017e-05
-6.56467e-06
3.21136e-05
-6.51304e-06
1.37805e-06
-3.53635e-06
-1.97345e-05
-4.52756e-07
-2.51423e-05
1.09197e-06
-1.93404e-05
1.9307e-06
-1.39671e-05
3.34215e-06
-1.05841e-05
1.72085e-06
-9.56836e-06
3.74144e-06
-5.29853e-06
1.10686e-05
1.4992e-05
1.48209e-05
1.00409e-05
1.07628e-05
3.00878e-06
1.17558e-06
2.354e-06
-5.34099e-06
5.02858e-06
-7.99293e-06
8.39812e-06
-8.19953e-06
7.07581e-06
-5.51136e-06
3.32574e-06
-3.57227e-06
8.28858e-06
7.62937e-06
-4.36004e-07
-1.0451e-05
-2.62517e-06
-7.25472e-06
-7.68167e-06
-3.93455e-06
-1.36792e-05
-2.82158e-06
-1.93658e-05
-2.87294e-06
-2.51541e-05
-1.61446e-06
-2.94081e-05
5.71648e-07
-3.19855e-05
4.8969e-07
-3.45011e-05
9.87309e-08
-3.69838e-05
8.87448e-07
-3.94206e-05
2.66508e-06
-4.15585e-05
4.82199e-06
-4.31745e-05
6.85598e-06
-4.39113e-05
8.8928e-06
-4.28991e-05
9.30071e-06
-3.93604e-05
6.50343e-06
-3.43093e-05
4.06972e-06
-2.95749e-05
4.28416e-06
-2.60986e-05
3.29895e-06
-2.3155e-05
1.61947e-06
-1.73585e-05
-3.06037e-06
-9.42416e-06
-8.227e-06
-1.07654e-05
-3.35883e-06
-8.77975e-06
-1.67133e-06
-1.44497e-05
-1.58482e-06
-1.77948e-05
-5.89485e-07
-2.0194e-05
-4.22426e-07
-2.23037e-05
-7.63337e-07
-2.4356e-05
4.37828e-07
-2.58782e-05
2.09388e-06
-2.80679e-05
2.67931e-06
-3.13067e-05
3.33751e-06
-3.48702e-05
4.451e-06
-3.78538e-05
5.6486e-06
-3.97439e-05
6.7121e-06
-4.05283e-05
7.64037e-06
-4.09021e-05
9.26662e-06
-4.12619e-05
9.66051e-06
-4.17846e-05
7.02622e-06
-4.27415e-05
5.02664e-06
-4.49855e-05
6.52809e-06
-4.76332e-05
5.9467e-06
-4.76522e-05
1.63846e-06
-4.54429e-05
-5.26974e-06
-4.16144e-05
-1.20555e-05
-1.45061e-05
-3.78737e-05
-7.35393e-06
5.68257e-06
-1.09551e-05
2.0163e-06
-1.11638e-05
-3.80822e-07
-1.26231e-05
1.03685e-06
-1.62234e-05
2.8369e-06
-2.08246e-05
5.039e-06
-2.46356e-05
5.90485e-06
-2.75708e-05
5.61449e-06
-3.04803e-05
6.24699e-06
-3.37836e-05
7.75432e-06
-3.653e-05
8.39498e-06
-3.77524e-05
7.93458e-06
-3.83283e-05
8.21622e-06
-3.90252e-05
9.96356e-06
-4.0628e-05
1.12634e-05
-4.35866e-05
9.98484e-06
-4.69373e-05
8.3773e-06
-5.1692e-05
1.12828e-05
-5.58183e-05
1.00731e-05
-5.70194e-05
2.83953e-06
-5.43355e-05
-7.95363e-06
-4.99941e-05
-1.63969e-05
-1.94394e-05
-4.50608e-05
-6.16997e-06
1.18525e-05
-1.26041e-05
8.45045e-06
-1.66381e-05
3.65308e-06
-2.05225e-05
4.92124e-06
-2.51679e-05
7.48235e-06
-2.9892e-05
9.76301e-06
-3.37446e-05
9.75742e-06
-3.64796e-05
8.34948e-06
-3.8728e-05
8.49536e-06
-4.06841e-05
9.71046e-06
-4.15812e-05
9.2921e-06
-4.12089e-05
7.56225e-06
-4.0252e-05
7.25941e-06
-3.9304e-05
9.01554e-06
-3.85387e-05
1.04982e-05
-3.8632e-05
1.00782e-05
-4.27969e-05
1.25422e-05
-4.68494e-05
1.53353e-05
-4.90173e-05
1.22411e-05
-4.74079e-05
1.23014e-06
-4.33844e-05
-1.19771e-05
-3.86535e-05
-2.11277e-05
-2.45814e-05
-3.35115e-05
-8.27044e-06
2.0123e-05
-1.72765e-05
1.74565e-05
-2.53972e-05
1.17738e-05
-3.27269e-05
1.2251e-05
-3.95236e-05
1.4279e-05
-4.48692e-05
1.51086e-05
-4.86041e-05
1.34923e-05
-5.09449e-05
1.06902e-05
-5.2057e-05
9.60746e-06
-5.18657e-05
9.51913e-06
-5.06932e-05
8.11963e-06
-4.87955e-05
5.66465e-06
-4.60838e-05
4.54772e-06
-4.28583e-05
5.79003e-06
-4.00835e-05
7.72353e-06
-3.95892e-05
9.58395e-06
-4.27833e-05
1.57364e-05
-4.36984e-05
1.62505e-05
-4.00651e-05
8.60787e-06
-3.40074e-05
-4.82752e-06
-2.94586e-05
-1.65259e-05
-2.67172e-05
-2.3869e-05
-2.73744e-05
-2.39243e-05
-1.199e-05
3.21131e-05
-2.26367e-05
2.81032e-05
-3.48561e-05
2.39932e-05
-4.58635e-05
2.32584e-05
-5.40596e-05
2.24751e-05
-5.88651e-05
1.99142e-05
-6.15018e-05
1.6129e-05
-6.29386e-05
1.21271e-05
-6.2689e-05
9.35791e-06
-6.07664e-05
7.5965e-06
-5.82187e-05
5.57194e-06
-5.55073e-05
2.95329e-06
-5.25193e-05
1.55969e-06
-4.89176e-05
2.18844e-06
-4.582e-05
4.62596e-06
-4.52012e-05
8.96521e-06
-4.12194e-05
1.17546e-05
-3.44459e-05
9.47699e-06
-2.59653e-05
1.27351e-07
-1.89641e-05
-1.18287e-05
-1.53798e-05
-2.01102e-05
-1.36368e-05
-2.5612e-05
-2.85242e-05
-1.24869e-05
-1.89029e-05
5.10161e-05
-3.3693e-05
4.28933e-05
-4.82073e-05
3.85074e-05
-6.02874e-05
3.53386e-05
-6.84643e-05
3.06521e-05
-7.29691e-05
2.44191e-05
-7.46834e-05
1.78433e-05
-7.44902e-05
1.1934e-05
-7.2493e-05
7.36073e-06
-6.88893e-05
3.99283e-06
-6.4689e-05
1.37164e-06
-6.08259e-05
-9.09819e-07
-5.74433e-05
-1.823e-06
-5.37586e-05
-1.49628e-06
-4.94212e-05
2.88538e-07
-4.28863e-05
2.43034e-06
-3.36277e-05
2.49601e-06
-2.28811e-05
-1.26971e-06
-1.35863e-05
-9.16747e-06
-8.25963e-06
-1.71554e-05
-5.77434e-06
-2.25956e-05
-4.30026e-06
-2.70861e-05
-3.01515e-05
-2.67289e-06
-2.30859e-05
7.41017e-05
-4.22307e-05
6.20381e-05
-5.87342e-05
5.50111e-05
-7.16648e-05
4.82693e-05
-7.98768e-05
3.88641e-05
-8.3165e-05
2.77074e-05
-8.30523e-05
1.77307e-05
-8.10274e-05
9.90906e-06
-7.76046e-05
3.93794e-06
-7.3023e-05
-5.88823e-07
-6.77422e-05
-3.9091e-06
-6.2415e-05
-6.23707e-06
-5.69386e-05
-7.29946e-06
-5.11608e-05
-7.2741e-06
-4.44331e-05
-6.43914e-06
-3.6072e-05
-5.93087e-06
-2.63294e-05
-7.24659e-06
-1.69689e-05
-1.06304e-05
-1.05146e-05
-1.56218e-05
-7.40655e-06
-2.02636e-05
-5.57561e-06
-2.44265e-05
-3.40127e-06
-2.92604e-05
-3.37891e-05
2.36416e-07
-1.98276e-05
9.39294e-05
-4.01862e-05
8.23967e-05
-6.13045e-05
7.61294e-05
-8.12431e-05
6.82079e-05
-9.38335e-05
5.14544e-05
-9.65517e-05
3.04254e-05
-9.33499e-05
1.45289e-05
-8.78836e-05
4.4428e-06
-8.16961e-05
-2.24914e-06
-7.48447e-05
-7.43968e-06
-6.76787e-05
-1.10743e-05
-6.06623e-05
-1.32526e-05
-5.36876e-05
-1.42733e-05
-4.67396e-05
-1.42216e-05
-4.04082e-05
-1.27702e-05
-3.4797e-05
-1.15416e-05
-2.87395e-05
-1.33041e-05
-2.33959e-05
-1.59739e-05
-1.93792e-05
-1.96383e-05
-1.65876e-05
-2.30551e-05
-1.29567e-05
-2.80571e-05
-6.94595e-06
-3.52709e-05
-3.94313e-05
-1.30354e-06
-8.54046e-06
0.00010247
-2.00788e-05
9.39351e-05
-3.67052e-05
9.2756e-05
-7.04559e-05
0.000101959
-8.26899e-05
6.36869e-05
-8.04012e-05
2.81349e-05
-7.67646e-05
1.08915e-05
-7.69568e-05
4.63432e-06
-7.98968e-05
6.89819e-07
-8.15213e-05
-5.81632e-06
-8.01573e-05
-1.2439e-05
-7.57853e-05
-1.76251e-05
-7.51812e-05
-1.48777e-05
-9.28772e-05
3.47369e-06
-0.000124638
1.89899e-05
-0.000131552
-4.62803e-06
-0.000113623
-3.12334e-05
-9.48649e-05
-3.47321e-05
-7.99792e-05
-3.45235e-05
-6.71653e-05
-3.5868e-05
-5.18088e-05
-4.34124e-05
-3.2646e-05
-5.4433e-05
-5.08094e-05
-2.12665e-05
4.22102e-06
9.82491e-05
1.34299e-05
8.47264e-05
3.34657e-05
7.2719e-05
2.31933e-05
0.000112219
4.18331e-05
4.50452e-05
4.14553e-05
2.85124e-05
3.47627e-05
1.75831e-05
2.60675e-05
1.33282e-05
1.68168e-05
9.93873e-06
5.55237e-06
5.44619e-06
-6.68375e-06
-2.04698e-07
-2.15994e-05
-2.71103e-06
-3.51538e-05
-1.32428e-06
-4.58399e-05
1.41589e-05
-6.02355e-05
3.33844e-05
-8.72081e-05
2.2344e-05
-9.40002e-05
-2.44413e-05
-7.65836e-05
-5.21493e-05
-5.92523e-05
-5.18545e-05
-5.90011e-05
-3.61189e-05
-6.44089e-05
-3.80041e-05
-7.14714e-05
-4.73689e-05
-4.37377e-05
-7.85424e-05
2.03195e-05
7.79305e-05
3.21082e-05
7.29344e-05
4.08944e-05
6.39224e-05
6.81071e-05
8.5003e-05
7.13343e-05
4.18253e-05
6.52324e-05
3.46164e-05
5.72251e-05
2.55897e-05
5.27006e-05
1.78513e-05
5.16481e-05
1.09899e-05
5.12621e-05
5.83103e-06
4.82124e-05
2.84422e-06
4.29989e-05
2.50184e-06
3.62665e-05
5.40765e-06
3.74561e-05
1.29694e-05
4.93855e-05
2.14559e-05
5.64505e-05
1.52788e-05
3.71328e-05
-5.12354e-06
1.24508e-05
-2.74664e-05
-9.81416e-07
-3.84226e-05
-3.25906e-06
-3.38415e-05
-6.0684e-06
-3.51947e-05
-1.55477e-05
-3.78903e-05
-3.50779e-05
-2.42058e-05
1.17282e-05
6.61987e-05
1.54275e-05
6.92301e-05
1.66803e-05
6.26659e-05
5.81566e-05
4.35374e-05
5.91922e-05
4.07931e-05
6.08494e-05
3.29589e-05
6.23445e-05
2.40934e-05
6.45262e-05
1.56683e-05
6.65432e-05
8.97176e-06
6.75875e-05
4.78578e-06
6.73461e-05
3.08476e-06
6.62451e-05
3.6022e-06
6.56957e-05
5.95653e-06
6.9109e-05
9.55568e-06
7.8648e-05
1.19169e-05
8.62929e-05
7.63442e-06
8.57507e-05
-4.58061e-06
7.61547e-05
-1.78698e-05
6.46278e-05
-2.68954e-05
6.07399e-05
-2.99535e-05
5.73556e-05
-3.18105e-05
5.16344e-05
-3.21685e-05
-2.96306e-05
4.61875e-05
1.59952e-05
5.01993e-05
3.76214e-05
4.7603e-05
5.06618e-05
4.96271e-05
5.19518e-05
4.22489e-05
5.62196e-05
3.65255e-05
6.02246e-05
2.89533e-05
6.35264e-05
2.07907e-05
6.57941e-05
1.33996e-05
6.72396e-05
7.52546e-06
6.81032e-05
3.92138e-06
6.84766e-05
2.71073e-06
6.87014e-05
3.3767e-06
6.96085e-05
5.049e-06
7.26928e-05
6.47093e-06
7.86861e-05
5.92337e-06
8.42311e-05
2.08925e-06
8.51686e-05
-5.51803e-06
8.14686e-05
-1.41696e-05
7.64825e-05
-2.19095e-05
7.33449e-05
-2.68161e-05
7.10632e-05
-2.95289e-05
6.89818e-05
-3.00879e-05
-2.84652e-05
6.78168e-05
2.24771e-05
2.7724e-05
3.21068e-05
3.7976e-05
3.93286e-05
4.24071e-05
4.35857e-05
3.79925e-05
4.85717e-05
3.15397e-05
5.2494e-05
2.50309e-05
5.45413e-05
1.87432e-05
5.51201e-05
1.28205e-05
5.55378e-05
7.10737e-06
5.61048e-05
3.35407e-06
5.64895e-05
2.32563e-06
5.66957e-05
3.17012e-06
5.73416e-05
4.4028e-06
5.92005e-05
4.61172e-06
6.22792e-05
2.84441e-06
6.50724e-05
-7.04127e-07
6.5767e-05
-6.21284e-06
6.4399e-05
-1.28018e-05
6.18053e-05
-1.9316e-05
5.9909e-05
-2.49202e-05
5.89126e-05
-2.85331e-05
5.89708e-05
-3.01461e-05
-2.92607e-05
5.9766e-05
6.52784e-06
2.11988e-05
1.52984e-05
2.92063e-05
2.45919e-05
3.31144e-05
3.18995e-05
3.06857e-05
3.66658e-05
2.67741e-05
3.9003e-05
2.26943e-05
3.91112e-05
1.86354e-05
3.8124e-05
1.3808e-05
3.79968e-05
7.23465e-06
3.84678e-05
2.88298e-06
3.86648e-05
2.12851e-06
3.83802e-05
3.45456e-06
3.83428e-05
4.44008e-06
3.89195e-05
4.03483e-06
4.01062e-05
1.65755e-06
4.10613e-05
-1.65944e-06
4.11335e-05
-6.28526e-06
4.02453e-05
-1.19138e-05
3.90218e-05
-1.80928e-05
3.81283e-05
-2.40271e-05
3.78237e-05
-2.82289e-05
3.84523e-05
-3.07756e-05
-3.05815e-05
3.9773e-05
3.47809e-06
1.77208e-05
9.64657e-06
2.30384e-05
1.66706e-05
2.60913e-05
2.16579e-05
2.56993e-05
2.45957e-05
2.38373e-05
2.57246e-05
2.15663e-05
2.55516e-05
1.88091e-05
2.49717e-05
1.43884e-05
2.42238e-05
7.98293e-06
2.35982e-05
3.50874e-06
2.30357e-05
2.6912e-06
2.26115e-05
3.87877e-06
2.26164e-05
4.43513e-06
2.32271e-05
3.42416e-06
2.43403e-05
5.44236e-07
2.55682e-05
-2.88751e-06
2.63017e-05
-7.01897e-06
2.6204e-05
-1.18164e-05
2.546e-05
-1.73491e-05
2.42483e-05
-2.28159e-05
2.34702e-05
-2.74515e-05
2.3328e-05
-3.06337e-05
-3.11834e-05
2.39294e-05
2.56402e-06
1.51575e-05
6.3098e-06
1.92935e-05
1.03629e-05
2.20391e-05
1.34392e-05
2.26241e-05
1.54291e-05
2.18484e-05
1.65559e-05
2.04405e-05
1.72003e-05
1.81655e-05
1.74648e-05
1.41246e-05
1.63212e-05
9.12706e-06
1.46361e-05
5.19424e-06
1.36224e-05
3.70521e-06
1.38663e-05
3.63507e-06
1.47682e-05
3.53335e-06
1.61764e-05
2.01594e-06
1.75082e-05
-7.87573e-07
1.87889e-05
-4.16821e-06
1.97922e-05
-8.02246e-06
2.0241e-05
-1.22654e-05
1.96917e-05
-1.68002e-05
1.82082e-05
-2.13327e-05
1.62427e-05
-2.54864e-05
1.43954e-05
-2.87871e-05
-3.01132e-05
1.33248e-05
1.42387e-06
1.37343e-05
3.53278e-06
1.71854e-05
5.97679e-06
1.95961e-05
8.15114e-06
2.04508e-05
9.91683e-06
2.00837e-05
1.14094e-05
1.89488e-05
1.27317e-05
1.68441e-05
1.34608e-05
1.33962e-05
1.31163e-05
9.47213e-06
1.21099e-05
6.20119e-06
1.15317e-05
4.2837e-06
1.19295e-05
3.23758e-06
1.32564e-05
2.20661e-06
1.49325e-05
3.39936e-07
1.64254e-05
-2.28038e-06
1.75951e-05
-5.33804e-06
1.81946e-05
-8.62202e-06
1.80449e-05
-1.21158e-05
1.70083e-05
-1.57638e-05
1.50874e-05
-1.94122e-05
1.24476e-05
-2.28471e-05
9.45828e-06
-2.57981e-05
-2.75673e-05
6.91189e-06
6.28741e-07
1.31067e-05
1.7926e-06
1.60225e-05
3.41498e-06
1.79746e-05
5.17861e-06
1.8688e-05
6.93715e-06
1.83261e-05
8.71026e-06
1.71766e-05
1.04041e-05
1.5151e-05
1.15877e-05
1.22133e-05
1.20259e-05
9.03454e-06
1.19714e-05
6.25614e-06
1.20592e-05
4.19638e-06
1.26954e-05
2.60161e-06
1.38918e-05
1.01047e-06
1.52025e-05
-9.7065e-07
1.62801e-05
-3.35799e-06
1.69027e-05
-5.96064e-06
1.69698e-05
-8.68914e-06
1.63951e-05
-1.15412e-05
1.50928e-05
-1.44616e-05
1.30341e-05
-1.73537e-05
1.02719e-05
-2.00852e-05
6.95654e-06
-2.24832e-05
-2.42089e-05
3.59775e-06
9.29159e-08
1.30144e-05
6.79588e-07
1.54366e-05
1.82789e-06
1.68271e-05
3.3362e-06
1.71805e-05
5.05399e-06
1.6609e-05
6.90313e-06
1.53281e-05
8.69928e-06
1.33555e-05
1.01105e-05
1.08027e-05
1.10174e-05
8.12817e-06
1.15843e-05
5.68968e-06
1.21412e-05
3.63992e-06
1.2892e-05
1.85105e-06
1.38053e-05
9.73309e-08
1.46603e-05
-1.82544e-06
1.52313e-05
-3.92895e-06
1.54116e-05
-6.1409e-06
1.51556e-05
-8.43326e-06
1.43926e-05
-1.07783e-05
1.30638e-05
-1.3133e-05
1.11268e-05
-1.54169e-05
8.58302e-06
-1.75417e-05
5.49447e-06
-1.9395e-05
-2.07782e-05
2.06329e-06
-3.34018e-07
1.33492e-05
-1.37221e-07
1.52404e-05
5.8784e-07
1.61026e-05
1.81346e-06
1.59554e-05
3.35831e-06
1.50647e-05
5.08463e-06
1.36024e-05
6.78789e-06
1.16527e-05
8.22969e-06
9.3614e-06
9.34164e-06
7.01668e-06
1.02037e-05
4.828e-06
1.09684e-05
2.8756e-06
1.17195e-05
1.10017e-06
1.24322e-05
-6.15161e-07
1.29972e-05
-2.39038e-06
1.32967e-05
-4.22832e-06
1.32823e-05
-6.12653e-06
1.29057e-05
-8.05668e-06
1.21255e-05
-9.9982e-06
1.08937e-05
-1.19013e-05
9.18167e-06
-1.3705e-05
6.98716e-06
-1.53475e-05
4.33567e-06
-1.67439e-05
-1.77584e-05
1.31535e-06
-7.01302e-07
1.40507e-05
-9.39845e-07
1.54793e-05
-5.79847e-07
1.5743e-05
3.30237e-07
1.50458e-05
1.59162e-06
1.38038e-05
3.06883e-06
1.21256e-05
4.58074e-06
1.01413e-05
5.95794e-06
7.9846e-06
7.13384e-06
5.84114e-06
8.12806e-06
3.83409e-06
8.99294e-06
2.01099e-06
9.75065e-06
3.42669e-07
1.03918e-05
-1.25614e-06
1.08429e-05
-2.84138e-06
1.1053e-05
-4.43835e-06
1.09797e-05
-6.05329e-06
1.05968e-05
-7.67381e-06
9.87086e-06
-9.27234e-06
8.77576e-06
-1.08063e-05
7.30223e-06
-1.22316e-05
5.45659e-06
-1.3502e-05
3.25999e-06
-1.45476e-05
-1.52733e-05
7.74485e-07
-1.03808e-06
1.50891e-05
-1.64715e-06
1.60886e-05
-1.63191e-06
1.5728e-05
-1.10087e-06
1.4515e-05
-1.71818e-07
1.2875e-05
1.02367e-06
1.09304e-05
2.33867e-06
8.82656e-06
3.6316e-06
6.69197e-06
4.83416e-06
4.63885e-06
5.91451e-06
2.75398e-06
6.86247e-06
1.06323e-06
7.67514e-06
-4.69828e-07
8.31847e-06
-1.89936e-06
8.7501e-06
-3.27293e-06
8.93991e-06
-4.62813e-06
8.86493e-06
-5.97831e-06
8.50103e-06
-7.30995e-06
7.8381e-06
-8.60947e-06
6.87331e-06
-9.84159e-06
5.61037e-06
-1.09688e-05
4.05824e-06
-1.19501e-05
2.24939e-06
-1.27389e-05
-1.32598e-05
2.35454e-07
-1.344e-06
1.64331e-05
-2.27473e-06
1.70194e-05
-2.59771e-06
1.60511e-05
-2.40397e-06
1.43214e-05
-1.78351e-06
1.22548e-05
-8.53217e-07
1.00003e-05
2.86922e-07
7.68662e-06
1.51852e-06
5.46056e-06
2.75293e-06
3.40462e-06
3.91895e-06
1.58812e-06
4.96441e-06
1.79097e-08
5.8494e-06
-1.3547e-06
6.52752e-06
-2.5774e-06
6.96651e-06
-3.71187e-06
7.15234e-06
-4.81395e-06
7.07209e-06
-5.89808e-06
6.73123e-06
-6.96913e-06
6.12666e-06
-8.00497e-06
5.26791e-06
-8.98291e-06
4.16863e-06
-9.86958e-06
2.8511e-06
-1.06327e-05
1.34098e-06
-1.12291e-05
-1.16051e-05
-3.13989e-07
-1.61412e-06
1.80471e-05
-2.8275e-06
1.82327e-05
-3.45243e-06
1.6676e-05
-3.5525e-06
1.44215e-05
-3.18948e-06
1.18918e-05
-2.45239e-06
9.26331e-06
-1.44957e-06
6.6839e-06
-2.66344e-07
4.27744e-06
1.00087e-06
2.13751e-06
2.26088e-06
3.28206e-07
3.41362e-06
-1.13475e-06
4.37105e-06
-2.31206e-06
5.08674e-06
-3.29306e-06
5.54094e-06
-4.16605e-06
5.7238e-06
-4.99682e-06
5.64537e-06
-5.81967e-06
5.31485e-06
-6.63865e-06
4.75289e-06
-7.44306e-06
3.97561e-06
-8.2057e-06
3.00395e-06
-8.89798e-06
1.85823e-06
-9.48717e-06
5.70058e-07
-9.94102e-06
-1.02149e-05
-8.20582e-07
-1.83756e-06
1.98844e-05
-3.28981e-06
1.96848e-05
-4.17242e-06
1.75585e-05
-4.51766e-06
1.47667e-05
-4.3623e-06
1.17364e-05
-3.77493e-06
8.67594e-06
-2.84246e-06
5.75145e-06
-1.6665e-06
3.10151e-06
-3.65574e-07
8.36607e-07
9.89429e-07
-1.02677e-06
2.22704e-06
-2.37233e-06
3.24575e-06
-3.33077e-06
3.99202e-06
-4.03932e-06
4.45228e-06
-4.62633e-06
4.63064e-06
-5.17519e-06
4.5435e-06
-5.73257e-06
4.22402e-06
-6.31922e-06
3.69164e-06
-6.91074e-06
2.97308e-06
-7.48721e-06
2.09317e-06
-8.01812e-06
1.07587e-06
-8.46995e-06
-5.1126e-08
-8.81437e-06
-9.01334e-06
-1.25293e-06
-1.99727e-06
2.18813e-05
-3.63477e-06
2.1322e-05
-4.72217e-06
1.86457e-05
-5.25666e-06
1.5301e-05
-5.24985e-06
1.17295e-05
-4.75398e-06
8.17999e-06
-3.85223e-06
4.84965e-06
-2.65321e-06
1.90246e-06
-1.26484e-06
-5.51794e-07
1.45777e-07
-2.43741e-06
1.42112e-06
-3.64769e-06
2.45744e-06
-4.36712e-06
3.21021e-06
-4.79212e-06
3.66368e-06
-5.07984e-06
3.82949e-06
-5.34104e-06
3.73447e-06
-5.6376e-06
3.40973e-06
-5.99452e-06
2.89357e-06
-6.39464e-06
2.21724e-06
-6.81094e-06
1.40403e-06
-7.20496e-06
4.80211e-07
-7.54629e-06
-5.31496e-07
-7.80263e-06
-7.94623e-06
-1.59898e-06
-2.07202e-06
2.3953e-05
-3.82626e-06
2.30759e-05
-5.05506e-06
1.98742e-05
-5.71782e-06
1.59636e-05
-5.79238e-06
1.18039e-05
-5.32516e-06
7.71265e-06
-4.40527e-06
3.92966e-06
-3.14253e-06
6.39639e-07
-1.67955e-06
-2.01485e-06
-2.70237e-07
-3.84679e-06
9.74742e-07
-4.89273e-06
1.97395e-06
-5.36638e-06
2.69671e-06
-5.51492e-06
3.12687e-06
-5.51005e-06
3.26971e-06
-5.48394e-06
3.1585e-06
-5.52644e-06
2.82677e-06
-5.66284e-06
2.31611e-06
-5.88403e-06
1.66188e-06
-6.15676e-06
8.94057e-07
-6.43719e-06
3.63596e-08
-6.68861e-06
-8.90507e-07
-6.87611e-06
-6.97703e-06
-1.85986e-06
-2.03934e-06
2.59918e-05
-3.82444e-06
2.48606e-05
-5.12302e-06
2.11725e-05
-5.85364e-06
1.6694e-05
-5.95613e-06
1.19062e-05
-5.46568e-06
7.22205e-06
-4.4831e-06
2.94694e-06
-3.12088e-06
-7.22699e-07
-1.66401e-06
-3.47182e-06
-3.08872e-07
-5.20201e-06
8.3802e-07
-6.0397e-06
1.74745e-06
-6.27587e-06
2.4036e-06
-6.17114e-06
2.78956e-06
-5.89606e-06
2.90476e-06
-5.5992e-06
2.7679e-06
-5.38963e-06
2.42143e-06
-5.31641e-06
1.90649e-06
-5.36914e-06
1.26298e-06
-5.51328e-06
5.24906e-07
-5.69915e-06
-2.85491e-07
-5.87838e-06
-1.14857e-06
-6.01294e-06
-6.07752e-06
-2.04849e-06
-1.87993e-06
2.78715e-05
-3.59322e-06
2.65736e-05
-4.88153e-06
2.24605e-05
-5.61519e-06
1.74274e-05
-5.72549e-06
1.20163e-05
-5.19656e-06
6.69294e-06
-4.10936e-06
1.8596e-06
-2.71065e-06
-2.12153e-06
-1.30811e-06
-4.87448e-06
-6.88018e-08
-6.44141e-06
9.2724e-07
-7.03582e-06
1.70329e-06
-7.05199e-06
2.25655e-06
-6.72446e-06
2.57939e-06
-6.21896e-06
2.65957e-06
-5.67943e-06
2.50587e-06
-5.23596e-06
2.14506e-06
-4.95563e-06
1.62567e-06
-4.84979e-06
9.8666e-07
-4.87431e-06
2.67123e-07
-4.97963e-06
-5.0992e-07
-5.10134e-06
-1.32772e-06
-5.19554e-06
-5.23391e-06
-2.17149e-06
-1.58316e-06
2.94541e-05
-3.10686e-06
2.80969e-05
-4.29126e-06
2.36447e-05
-4.98103e-06
1.8117e-05
-5.08838e-06
1.21235e-05
-4.55185e-06
6.15625e-06
-3.38436e-06
6.91976e-07
-2.00282e-06
-3.5032e-06
-7.27367e-07
-6.15004e-06
3.24725e-07
-7.49359e-06
1.14085e-06
-7.85202e-06
1.75164e-06
-7.66284e-06
2.18217e-06
-7.15505e-06
2.42716e-06
-6.464e-06
2.47485e-06
-5.72714e-06
2.3108e-06
-5.07193e-06
1.94952e-06
-4.59437e-06
1.42996e-06
-4.33023e-06
7.99308e-07
-4.24366e-06
9.21473e-08
-4.27248e-06
-6.59365e-07
-4.34996e-06
-1.43898e-06
-4.41569e-06
-4.43448e-06
-2.23872e-06
-1.15424e-06
3.06082e-05
-2.3616e-06
2.9304e-05
-3.33472e-06
2.46176e-05
-3.92991e-06
1.8712e-05
-4.02144e-06
1.22149e-05
-3.5264e-06
5.66108e-06
-2.3487e-06
-4.85843e-07
-1.08181e-06
-4.77019e-06
-6.73723e-08
-7.16456e-06
7.47753e-07
-8.30878e-06
1.36647e-06
-8.47079e-06
1.80368e-06
-8.10009e-06
2.09108e-06
-7.44246e-06
2.25026e-06
-6.62319e-06
2.26857e-06
-5.74545e-06
2.11511e-06
-4.91844e-06
1.78022e-06
-4.25947e-06
1.28163e-06
-3.83162e-06
6.66669e-07
-3.62867e-06
-2.19123e-08
-3.58385e-06
-7.47975e-07
-3.62376e-06
-1.49434e-06
-3.66965e-06
-3.67721e-06
-2.25155e-06
-6.29152e-07
3.12369e-05
-1.39641e-06
3.0071e-05
-2.03567e-06
2.52566e-05
-2.41815e-06
1.90943e-05
-2.40147e-06
1.21981e-05
-1.90625e-06
5.16577e-06
-9.83361e-07
-1.40881e-06
-9.51857e-08
-5.65842e-06
5.79179e-07
-7.83896e-06
1.13618e-06
-8.86581e-06
1.53715e-06
-8.87177e-06
1.78667e-06
-8.34961e-06
1.92794e-06
-7.58371e-06
1.994e-06
-6.68922e-06
1.98197e-06
-5.73338e-06
1.85895e-06
-4.79538e-06
1.57959e-06
-3.98005e-06
1.13708e-06
-3.38905e-06
5.61258e-07
-3.05277e-06
-9.52067e-08
-2.92729e-06
-7.93647e-07
-2.92537e-06
-1.5031e-06
-2.95984e-06
-2.96269e-06
-2.21783e-06
-9.23489e-08
3.13293e-05
-3.10223e-07
3.02888e-05
-5.17651e-07
2.54639e-05
-4.87953e-07
1.90645e-05
-1.75927e-07
1.1886e-05
3.28716e-07
4.66108e-06
7.12564e-07
-1.79268e-06
9.99648e-07
-5.94552e-06
1.28722e-06
-8.12653e-06
1.50734e-06
-9.08592e-06
1.63342e-06
-8.99782e-06
1.66806e-06
-8.3842e-06
1.65133e-06
-7.56693e-06
1.62006e-06
-6.65787e-06
1.58148e-06
-5.69472e-06
1.49829e-06
-4.71209e-06
1.30619e-06
-3.78785e-06
9.57179e-07
-3.03993e-06
4.58118e-07
-2.5536e-06
-1.46176e-07
-2.32287e-06
-8.02451e-07
-2.2689e-06
-1.47241e-06
-2.29017e-06
-2.2943e-06
-2.14066e-06
4.37455e-07
3.08915e-05
7.68653e-07
2.99575e-05
1.11808e-06
2.51144e-05
1.62428e-06
1.85583e-05
2.24895e-06
1.12613e-05
2.67921e-06
4.23082e-06
2.61322e-06
-1.72667e-06
2.3434e-06
-5.67567e-06
2.1229e-06
-7.90598e-06
1.89176e-06
-8.85473e-06
1.66501e-06
-8.771e-06
1.44598e-06
-8.16508e-06
1.25788e-06
-7.37874e-06
1.12527e-06
-6.52515e-06
1.05577e-06
-5.6251e-06
1.01496e-06
-4.67115e-06
9.28401e-07
-3.70115e-06
7.11184e-07
-2.82258e-06
3.25736e-07
-2.168e-06
-1.94778e-07
-1.80221e-06
-7.93067e-07
-1.67059e-06
-1.41457e-06
-1.66814e-06
-1.67931e-06
-2.02962e-06
8.5481e-07
3.00368e-05
1.68943e-06
2.91228e-05
2.54228e-06
2.42616e-05
3.48434e-06
1.76162e-05
4.32365e-06
1.0422e-05
4.70289e-06
3.85161e-06
4.35589e-06
-1.37962e-06
3.67408e-06
-4.9938e-06
2.94021e-06
-7.17204e-06
2.23124e-06
-8.14568e-06
1.62212e-06
-8.16179e-06
1.13664e-06
-7.6795e-06
7.78529e-07
-7.02051e-06
5.4819e-07
-6.29468e-06
4.40131e-07
-5.51691e-06
4.27649e-07
-4.65852e-06
4.42616e-07
-3.71597e-06
3.79212e-07
-2.75903e-06
1.49095e-07
-1.93773e-06
-2.53345e-07
-1.39959e-06
-7.70251e-07
-1.15337e-06
-1.33217e-06
-1.10643e-06
-1.12197e-06
-1.88917e-06