/*--------------------------------*- C++ -*----------------------------------*\
| =========                 |                                                 |
| \\      /  F ield         | OpenFOAM: The Open Source CFD Toolbox           |
|  \\    /   O peration     | Version:  2312                                  |
|   \\  /    A nd           | Website:  www.openfoam.com                      |
|    \\/     M anipulation  |                                                 |
\*---------------------------------------------------------------------------*/
FoamFile
{
    version     2.0;
    format      ascii;
    arch        "LSB;label=32;scalar=64";
    class       volScalarField;
    location    "4.7";
    object      alpha.oil;
}
// * * * * * * * * * * * * * * * * * * * * * * * * * * * * * * * * * * * * * //

dimensions      [0 0 0 0 0 0 0];

internalField   nonuniform List<scalar> 
2268
(
8.32707e-10
9.27512e-10
9.97459e-10
2.7631e-09
8.88006e-09
1.25468e-08
1.13095e-08
8.45575e-09
5.39708e-09
3.33042e-09
2.11117e-09
1.53745e-09
1.13475e-09
8.80533e-10
7.8274e-10
8.8809e-10
1.38093e-09
1.85522e-09
1.86091e-09
1.86674e-09
1.37249e-05
4.54284e-05
4.54284e-05
1.97313e-09
1.23072e-09
3.41045e-09
2.11005e-08
5.58838e-08
7.08169e-08
7.14896e-08
5.32922e-08
2.8856e-08
1.56791e-08
8.16858e-09
4.92741e-09
3.13292e-09
2.67095e-09
2.44175e-09
2.77346e-09
4.55331e-09
1.09109e-08
2.11376e-08
1.87221e-09
2.18804e-06
3.12373e-05
3.98254e-05
1.68937e-08
1.32252e-08
1.86575e-08
2.90343e-08
6.18604e-08
7.61819e-08
7.61833e-08
6.41894e-08
3.12522e-08
1.31886e-08
1.07611e-08
5.44303e-09
4.10882e-09
5.4262e-09
6.38957e-09
3.99565e-09
4.00577e-09
2.36467e-07
3.88561e-07
3.62055e-07
3.86065e-08
2.50671e-06
3.67565e-06
1.65444e-08
1.55531e-08
4.73298e-07
3.9383e-08
4.1565e-09
4.12097e-09
4.11688e-09
4.10106e-09
4.08547e-09
4.07645e-09
4.06311e-09
4.04987e-09
4.03686e-09
4.0262e-09
4.01595e-09
4.00579e-09
4.01595e-09
4.53371e-08
2.25811e-07
2.23048e-07
3.9425e-08
7.03933e-11
-1.28598e-10
0.00211223
0.00244621
0.00278142
0.00270041
0.00206027
0.00092315
9.22731e-05
7.77114e-06
6.31323e-05
0.000217269
0.000312233
0.000144338
6.42416e-05
0.000137115
7.71935e-05
3.53481e-08
4.02622e-09
5.00419e-08
3.6139e-08
8.7707e-09
5.35406e-09
3.03015e-10
5.57694e-08
0.00551807
0.00554476
0.00554509
0.00554686
0.00554509
0.00360018
0.000498419
2.47711e-05
0.000181205
0.000650677
0.000651246
0.000584533
0.000245029
0.000603673
0.00154467
0.000962344
0.000176851
7.83541e-09
5.37331e-12
5.15013e-12
5.37319e-12
5.15013e-12
5.0263e-08
0.000997846
0.00129411
0.00220955
0.00289119
0.00220087
0.00124631
0.000471991
8.26602e-05
9.69437e-05
0.000301569
0.000499145
0.000483555
0.000173925
0.000148997
0.00202262
0.00352441
0.00165273
0.0072454
0.0429189
0.0704478
0.0628884
0.0176822
5.0749e-08
4.07252e-20
1.47911e-32
4.51652e-08
9.60706e-09
5.76493e-09
2.44827e-08
5.17259e-05
4.91714e-05
3.36118e-05
7.02806e-05
0.000154597
0.000175746
0.000140334
0.000149183
0.00210598
0.0101835
0.0290592
0.0643998
0.0954991
0.0980254
0.0980301
0.0952775
0.00753689
0.0266296
0.0266295
0.0266295
0.0266294
0.0266292
0.0266292
0.0266293
0.0266294
0.0266295
0.0266295
0.0266296
0.0266296
0.027721
0.0286495
0.0284236
0.0274133
0.026792
0.0267713
0.0267713
0.0285115
0.0305634
0.0294766
0.0272701
0.0301361
0.0277613
0.0266293
0.027786
0.0306568
0.0310593
0.0517385
0.0685195
0.0897597
0.105129
0.113601
0.118191
0.117423
0.115281
0.122177
0.20955
0.19255
0.15976
0.149687
0.164067
0.219982
0.240172
0.260768
0.319627
0.411553
0.456851
0.467991
0.48761
0.480901
0.466603
0.463253
0.448184
0.432975
0.433126
0.258005
0.257971
0.240011
0.188261
0.164288
0.152052
0.164367
0.212775
0.244622
0.271492
0.325858
0.467514
0.493379
0.493358
0.411967
0.269624
0.185717
0.135431
0.353578
0.258005
0.0621442
0.0278636
0.00433161
0.00434818
0.0163692
0.0264028
0.022645
0.0157323
0.0114673
0.01949
0.0439587
0.347964
0.493379
0.413536
0.0617042
0.0301463
0.0300143
0.229388
0.166314
0.00342308
0.00341595
0.00656321
0.00595053
0.0193577
0.0159761
0.0118563
0.00676885
0.00404157
0.00806495
0.0180998
0.0710813
0.479558
0.45339
0.10403
0.0301833
0.0300297
0.0781752
0.0971973
0.0042311
0.00732962
0.0541195
0.0168109
0.012815
0.050455
0.0167524
0.00504318
0.00403533
0.00403681
0.00570734
0.0248554
0.1757
0.161485
0.087578
0.04554
0.0375361
0.0470895
0.0039365
0.00440848
0.0444209
0.0879907
0.069232
0.0258806
0.0510483
0.0222258
0.0212802
0.0848917
0.0182641
0.0060675
0.00619153
0.0216877
0.022354
0.0457551
0.0534345
0.0386892
0.0357648
-3.02283e-22
4.66985e-18
1.15212e-06
7.39722e-07
1.02732e-08
1.09791e-06
2.14701e-06
9.82118e-07
1.16262e-10
3.5878e-10
2.1435e-05
4.48432e-05
4.47267e-05
0.00014691
0.000578422
0.0136198
0.0255545
0.0141589
0.0145903
0.0394823
0.067896
0.0677677
0.0486003
0.00116137
0.00653585
0.00850821
0.00180797
-1.9507e-12
-1.9608e-10
2.6503e-21
4.64272e-21
-7.98875e-16
-1.94961e-20
1.63354e-24
-5.01665e-24
-1.42658e-23
-1.12628e-08
4.15598e-07
2.75734e-05
0.000635187
0.000466431
0.000467513
0.000680619
0.00110901
0.00108416
0.00368086
0.436971
0.500939
0.54552
0.41558
0.281117
0.196566
0.143959
0.150071
0.159233
0.148426
0.138026
0.123868
0.112889
0.107135
0.0634467
0.00918042
0.000625775
0.00341701
0.00414535
0.0037155
0.00453384
0.0111355
0.0465638
0.95145
0.977299
0.989646
0.917701
0.744394
0.718187
0.733091
0.736234
0.758208
0.842286
0.895167
0.928515
0.912279
0.808195
0.715699
0.647672
0.624457
0.634039
0.641621
0.621223
0.584879
0.570311
0.689682
0.969177
0.996177
0.965417
0.94755
0.954446
0.971759
0.923824
0.937336
0.996216
0.998605
0.998079
0.999503
0.997701
0.99496
0.994508
0.995669
0.997777
0.997956
0.994555
0.969003
0.957065
0.9639
0.994128
0.994089
0.997125
0.976058
0.96901
0.997353
0.99067
0.969923
0.98351
0.999676
0.999677
0.999676
0.999676
0.999676
0.999674
0.999669
0.999661
0.99966
0.999658
0.994564
0.978218
0.97606
0.993381
0.998072
0.998662
0.997783
0.99761
0.999229
0.999646
0.999655
0.999667
0.999676
0.999677
0.999676
0.999475
0.998106
0.992807
0.990893
0.994254
0.9983
0.99963
0.999517
0.992633
0.971906
0.944876
0.928013
0.939402
0.998718
0.999043
0.999433
0.999414
0.999096
0.999584
0.999466
0.999677
0.97169
0.875188
0.765116
0.672939
0.616704
0.591083
0.580104
0.58003
0.583053
0.56444
0.505625
0.410428
0.292925
0.238934
0.256355
0.999072
0.999112
0.999395
0.994791
0.992408
0.987296
0.819647
0.541942
0.265762
0.119242
0.0349716
0.00550763
8.03599e-13
4.25763e-13
6.75197e-23
8.87883e-23
-1.87e-07
7.2655e-15
1.48629e-15
6.34239e-17
8.33872e-24
1.0649e-24
3.37912e-13
0.999062
0.998507
0.994871
0.971575
0.806461
0.471069
0.166418
0.0169075
5.5675e-06
5.19054e-08
2.64187e-20
-7.12171e-22
2.15395e-06
3.83822e-06
4.63329e-06
2.62174e-06
9.44928e-07
5.07683e-07
1.7647e-07
4.88305e-08
4.21149e-07
1.20756e-06
2.82548e-06
0.999018
0.929104
0.734127
0.42301
0.133661
0.0040377
1.56111e-15
1.30107e-12
2.69709e-06
4.24894e-07
-4.24381e-23
4.65085e-21
3.98587e-06
2.34601e-05
4.2179e-05
3.39005e-05
2.05433e-05
6.68889e-06
6.41481e-07
2.26954e-07
9.13679e-07
2.52268e-06
7.28268e-06
0.3491
0.215965
0.0525063
0.000823901
8.05701e-07
4.37543e-10
1.47797e-15
1.07732e-06
1.0384e-06
6.81586e-08
-8.44547e-18
8.45362e-18
2.2927e-05
5.89373e-05
5.88397e-05
5.1735e-05
4.46368e-05
1.39416e-05
-3.23767e-10
1.80192e-07
1.7409e-06
9.07815e-06
1.78594e-05
1.00458e-14
9.91161e-15
1.02591e-14
9.91162e-15
1.02603e-14
1.58954e-11
2.8812e-15
1.09226e-07
5.21698e-08
1.57913e-08
-1.22967e-09
9.18927e-06
5.90067e-05
5.9037e-05
4.80401e-05
3.82851e-05
3.29898e-05
4.96505e-06
5.35436e-10
1.2338e-06
1.38409e-05
1.78542e-05
1.78428e-05
9.87089e-15
2.30001e-14
8.34256e-14
2.61646e-11
1.00535e-11
6.9468e-12
1.63128e-08
1.24173e-08
6.20714e-08
3.36786e-08
3.50264e-09
2.8272e-05
5.90361e-05
5.82936e-05
9.60681e-06
1.67325e-07
9.3719e-09
1.29337e-07
-2.10352e-10
2.00092e-06
1.64946e-05
1.76027e-05
1.57461e-05
-1.22784e-19
-8.28991e-22
1.6949e-17
4.61846e-12
7.55635e-10
5.23302e-08
3.64772e-07
3.52571e-07
1.5971e-07
4.51813e-08
1.68401e-06
1.0286e-05
9.15933e-06
1.91171e-06
2.76029e-07
2.68687e-08
1.56944e-08
5.50409e-08
3.64046e-08
9.77835e-09
4.18227e-06
1.51957e-05
4.83106e-06
2.32447e-09
4.97174e-09
5.65333e-09
2.23547e-12
2.90177e-08
2.84582e-07
3.89532e-07
3.89358e-07
2.34156e-07
1.56643e-07
1.01148e-06
1.11263e-06
5.81463e-07
7.85912e-08
9.5599e-09
2.63337e-09
1.27109e-07
1.86754e-07
1.24281e-07
2.48334e-08
2.11777e-07
9.4893e-07
4.54215e-07
1.82726e-08
2.44632e-08
4.67526e-08
5.84506e-08
1.2076e-07
2.85269e-07
3.51214e-07
3.7399e-07
1.99691e-07
1.63412e-07
1.89713e-07
1.0751e-07
3.69671e-08
1.35296e-08
1.07472e-08
1.58803e-08
1.06618e-08
1.37486e-08
7.63054e-09
3.37648e-09
2.29363e-09
7.88727e-07
6.9273e-07
2.49105e-08
2.75211e-08
4.87126e-08
8.02998e-08
1.19172e-07
1.3182e-07
1.16182e-07
1.09053e-07
7.81499e-08
4.6796e-08
2.625e-08
1.58135e-08
9.67712e-09
7.09976e-09
5.92931e-09
4.25445e-09
2.87764e-09
2.47353e-09
2.4425e-09
2.30614e-09
2.20476e-09
3.50858e-07
6.30165e-07
1.7559e-08
1.97217e-08
3.11716e-08
4.86702e-08
6.37394e-08
5.49491e-08
3.92087e-08
3.02963e-08
1.644e-08
1.47973e-08
9.98053e-09
6.98231e-09
4.71598e-09
3.41694e-09
2.7916e-09
2.53213e-09
2.56291e-09
2.82619e-09
3.24986e-09
3.11987e-09
2.31624e-09
2.29772e-08
3.90595e-07
7.60312e-09
1.33213e-08
2.18217e-08
3.22274e-08
3.07659e-08
3.11636e-08
2.54063e-08
1.57568e-08
9.38199e-09
7.32575e-09
5.43268e-09
3.60223e-09
2.6107e-09
2.09951e-09
1.91224e-09
2.00108e-09
2.2218e-09
2.59515e-09
3.00587e-09
3.21305e-09
2.62256e-09
4.46473e-08
2.89359e-07
4.53442e-09
9.66124e-09
1.57622e-08
2.02731e-08
2.01395e-08
1.90331e-08
1.39431e-08
9.31571e-09
6.22201e-09
4.28271e-09
2.83456e-09
1.99024e-09
1.52527e-09
1.3195e-09
1.30721e-09
1.42683e-09
1.6519e-09
1.97441e-09
2.45557e-09
3.21518e-09
3.87586e-09
4.18003e-09
4.62188e-08
2.97669e-09
7.2551e-09
1.13338e-08
1.36705e-08
1.35773e-08
1.11128e-08
7.80532e-09
5.21704e-09
3.3375e-09
2.14962e-09
1.4451e-09
1.02831e-09
8.13556e-10
7.32115e-10
7.56883e-10
8.61624e-10
1.03992e-09
1.30147e-09
1.69034e-09
2.3277e-09
2.94476e-09
3.91109e-09
7.60179e-09
2.72537e-09
5.36568e-09
7.67426e-09
8.3224e-09
7.42524e-09
5.84469e-09
3.97293e-09
2.55852e-09
1.57031e-09
1.01952e-09
7.01024e-10
5.14628e-10
4.13989e-10
3.76009e-10
3.99259e-10
4.75947e-10
6.05449e-10
7.97948e-10
1.0492e-09
1.44257e-09
2.06418e-09
2.74652e-09
6.52316e-09
2.61037e-09
4.03603e-09
5.07921e-09
5.00438e-09
4.06333e-09
2.9433e-09
1.92094e-09
1.23545e-09
8.12814e-10
5.70715e-10
4.15698e-10
3.09693e-10
2.39908e-10
2.04799e-10
2.09185e-10
2.52879e-10
3.35378e-10
4.61581e-10
6.39178e-10
8.91025e-10
1.10754e-09
1.84197e-09
2.6615e-09
2.54473e-09
3.12746e-09
3.39453e-09
3.05433e-09
2.36003e-09
1.65769e-09
1.09033e-09
7.62878e-10
5.8347e-10
4.65535e-10
3.62974e-10
2.68607e-10
1.90893e-10
1.39087e-10
1.1925e-10
1.32392e-10
1.76419e-10
2.53021e-10
3.63012e-10
5.01606e-10
7.11493e-10
8.89177e-10
1.4757e-09
2.52368e-09
2.56225e-09
2.44499e-09
2.08659e-09
1.65889e-09
1.2346e-09
8.23315e-10
6.53835e-10
5.81286e-10
5.01764e-10
4.04002e-10
2.96741e-10
1.99009e-10
1.25835e-10
8.41114e-11
7.32601e-11
9.0076e-11
1.32247e-10
1.97892e-10
2.91059e-10
3.8339e-10
6.01571e-10
7.47306e-10
2.55172e-09
2.26812e-09
2.01697e-09
1.75311e-09
1.55332e-09
1.24455e-09
7.59729e-10
6.75414e-10
6.3676e-10
5.66758e-10
4.64028e-10
3.43085e-10
2.2742e-10
1.36002e-10
7.6678e-11
4.89597e-11
4.70864e-11
6.67421e-11
1.04188e-10
1.60064e-10
2.42712e-10
3.26547e-10
4.94917e-10
2.60332e-09
2.16009e-09
1.89996e-09
1.76577e-09
1.60232e-09
1.2372e-09
7.18899e-10
7.29885e-10
6.85658e-10
6.13263e-10
5.07315e-10
3.80926e-10
2.55252e-10
1.53165e-10
8.09037e-11
4.13169e-11
2.85371e-11
3.45831e-11
5.60736e-11
9.33325e-11
1.38241e-10
2.38914e-10
3.13127e-10
2.68009e-09
2.16275e-09
1.92972e-09
2.12002e-09
5.44786e-09
8.40116e-10
7.21271e-10
9.46279e-10
7.04231e-10
6.19787e-10
5.14051e-10
3.91815e-10
2.68973e-10
1.63917e-10
8.69228e-11
4.16064e-11
2.14156e-11
1.9583e-11
3.1101e-11
5.21819e-11
9.83847e-11
1.46422e-10
2.42154e-10
2.71095e-09
2.44309e-09
1.91642e-09
2.37655e-09
1.22891e-08
5.34211e-10
9.48195e-10
1.92863e-09
6.54017e-10
5.44698e-10
4.61527e-10
3.66186e-10
2.58831e-10
1.63511e-10
8.93486e-11
4.27818e-11
1.9238e-11
1.29489e-11
1.84838e-11
3.42958e-11
5.73025e-11
1.16347e-10
1.66589e-10
3.1415e-09
4.37646e-09
1.40887e-08
4.65197e-08
3.86965e-09
4.68671e-10
4.69901e-10
4.26739e-09
5.12562e-10
4.65987e-10
3.94675e-10
3.16894e-10
2.28309e-10
1.4736e-10
8.51331e-11
4.2103e-11
1.82241e-11
9.58684e-12
1.134e-11
2.06689e-11
4.47677e-11
7.51652e-11
1.319e-10
3.72755e-09
5.73021e-09
4.82249e-08
2.31561e-07
3.23244e-09
4.91032e-09
2.19184e-08
2.33819e-09
3.99583e-10
4.16858e-10
3.21364e-10
2.52569e-10
1.81446e-10
1.21096e-10
7.29565e-11
3.79797e-11
1.67836e-11
7.52563e-12
6.98305e-12
1.31654e-11
2.50951e-11
5.86816e-11
9.04459e-11
5.59331e-09
7.2192e-09
1.94708e-08
2.52708e-07
1.70076e-08
9.89647e-09
5.71457e-08
5.34085e-10
4.16211e-10
3.62592e-10
2.43009e-10
1.87211e-10
1.34362e-10
8.92213e-11
5.5513e-11
3.07395e-11
1.4326e-11
6.01563e-12
4.19379e-12
7.57378e-12
1.72123e-11
3.18561e-11
6.79098e-11
7.19687e-09
3.96657e-08
1.1285e-07
2.33779e-07
3.14021e-08
4.75879e-08
6.39828e-08
7.72518e-09
5.76461e-10
2.98836e-10
1.70807e-10
1.29605e-10
9.21463e-11
5.93952e-11
3.70081e-11
2.17597e-11
1.10124e-11
4.70964e-12
2.59718e-12
3.99421e-12
8.43016e-12
2.39957e-11
3.78222e-11
1.28764e-08
1.25275e-07
8.21809e-07
3.26464e-07
9.58954e-08
1.24739e-07
6.20988e-08
1.02668e-08
9.32413e-10
2.29157e-10
1.13027e-10
8.5419e-11
5.82599e-11
3.57355e-11
2.1512e-11
1.30894e-11
7.26738e-12
3.34401e-12
1.64264e-12
2.07152e-12
4.51504e-12
9.93103e-12
2.44998e-11
1.40441e-08
2.02545e-07
8.37486e-07
8.20683e-07
1.25894e-07
1.45968e-07
6.16729e-08
1.16961e-08
1.3524e-09
1.86539e-10
7.05044e-11
5.15839e-11
3.41945e-11
1.95128e-11
1.08952e-11
6.5625e-12
3.9941e-12
2.06846e-12
9.93198e-13
1.07062e-12
2.43048e-12
6.0842e-12
1.1706e-11
1.33024e-08
2.1711e-07
8.37486e-07
8.37372e-07
1.39348e-07
1.45955e-07
6.04918e-08
1.50633e-08
2.16785e-09
2.0241e-10
4.16303e-11
2.87078e-11
1.86063e-11
9.75702e-12
4.86447e-12
2.69692e-12
1.71686e-12
1.02891e-12
5.29735e-13
4.27606e-13
8.84194e-13
2.10376e-12
6.39108e-12
1.19343e-08
1.73006e-07
8.37486e-07
8.37486e-07
1.71149e-07
1.05727e-07
4.77739e-08
1.54741e-08
2.89686e-09
2.77643e-10
2.55875e-11
1.41497e-11
9.11894e-12
4.52058e-12
1.97122e-12
9.34655e-13
5.60636e-13
3.83726e-13
2.36785e-13
1.82906e-13
3.71963e-13
9.61544e-13
2.1571e-12
8.5266e-09
1.3155e-07
8.37486e-07
6.95132e-07
1.55442e-07
7.11918e-08
3.21912e-08
1.13788e-08
2.40413e-09
2.78828e-10
1.71724e-11
5.9464e-12
3.91179e-12
1.8747e-12
7.25444e-13
2.7029e-13
1.36882e-13
9.96111e-14
7.93341e-14
6.46893e-14
1.14354e-13
3.13331e-13
8.06745e-13
4.57757e-09
1.07733e-07
7.58553e-07
2.96344e-07
1.04859e-07
5.64596e-08
2.53333e-08
7.9494e-09
1.53418e-09
1.66184e-10
8.43156e-12
1.9059e-12
1.3367e-12
6.51246e-13
2.34023e-13
7.14894e-14
2.60687e-14
1.7171e-14
1.73991e-14
1.98498e-14
3.3522e-14
9.91376e-14
2.51681e-13
4.31651e-09
1.0959e-07
3.57795e-07
1.46625e-07
7.11027e-08
4.12379e-08
1.56902e-08
3.63103e-09
5.35545e-10
4.11525e-11
1.5118e-12
3.86663e-13
3.0973e-13
1.59654e-13
5.6202e-14
1.46592e-14
3.65571e-15
1.96421e-15
2.78063e-15
4.4732e-15
8.8907e-15
2.72177e-14
7.56114e-14
4.31651e-09
6.81604e-08
1.13439e-07
5.94765e-08
4.52665e-08
1.94998e-08
3.93441e-09
5.02719e-10
3.54117e-11
1.2811e-12
4.06724e-14
3.77395e-14
3.59415e-14
2.03494e-14
7.39942e-15
1.70507e-15
3.13803e-16
1.4319e-16
3.22857e-16
8.75017e-16
2.30663e-15
7.34205e-15
2.01577e-14
0.0258027
0.0155167
0.0122421
0.00389621
0.00112439
0.0010912
0.00112373
0.00114442
0.125763
0.141932
0.197557
0.376675
0.927675
0.98816
0.995519
0.992455
0.999123
0.998985
0.998826
0.999125
0.999124
0.999124
0.999123
0.999125
0.980298
0.987232
0.987336
0.983792
0.370947
0.409966
0.40674
0.381619
4.11518e-15
1.17695e-16
-6.77426e-25
-9.50454e-26
1.24161e-06
4.23821e-08
1.13428e-07
8.05229e-08
4.5894e-06
2.0148e-06
1.86092e-06
7.59447e-07
1.78423e-05
1.78634e-05
1.05142e-05
3.54815e-06
1.78583e-05
1.78117e-05
1.78325e-05
1.45313e-05
1.10768e-05
1.36246e-05
1.21637e-05
6.74107e-06
2.31374e-07
1.55392e-07
3.68331e-07
7.81573e-06
1.77988e-07
7.09807e-07
1.0314e-05
1.49512e-05
1.76831e-07
2.79069e-07
8.95681e-06
1.48786e-05
2.56295e-07
1.40585e-07
3.63784e-07
3.11287e-06
2.43452e-07
1.62758e-07
1.05352e-07
7.57052e-08
2.82693e-07
1.71672e-07
9.91051e-08
6.41901e-08
1.10685e-07
8.97343e-08
5.94453e-08
2.1557e-08
1.98137e-08
2.45077e-08
1.9045e-08
1.83507e-08
7.88434e-09
7.29807e-09
1.29436e-08
1.92253e-08
3.67658e-09
5.06289e-09
6.02273e-09
9.3245e-09
1.86694e-09
1.84277e-09
2.58369e-09
3.10318e-09
9.4602e-10
1.15164e-09
1.22289e-09
1.51799e-09
5.8224e-10
6.34248e-10
7.9145e-10
8.65972e-10
4.07846e-10
4.87055e-10
5.43033e-10
6.37225e-10
3.01271e-10
3.51836e-10
4.38445e-10
4.78551e-10
2.26009e-10
2.93012e-10
3.35089e-10
4.05119e-10
1.77251e-10
2.16422e-10
2.79108e-10
3.10038e-10
1.35509e-10
1.74956e-10
2.01848e-10
2.53246e-10
9.53101e-11
1.1556e-10
1.5254e-10
1.65937e-10
6.73149e-11
7.93117e-11
9.30486e-11
1.19722e-10
3.58105e-11
4.56378e-11
5.89319e-11
6.53906e-11
2.04413e-11
2.484e-11
3.02419e-11
3.80438e-11
9.5596e-12
1.2341e-11
1.49908e-11
1.74759e-11
4.07019e-12
4.84142e-12
6.1652e-12
7.58546e-12
1.35546e-12
1.76284e-12
2.15138e-12
2.63967e-12
4.30278e-13
5.46779e-13
7.14561e-13
8.64415e-13
1.25012e-13
1.58575e-13
1.89509e-13
2.27073e-13
3.13557e-14
3.44718e-14
3.96503e-14
4.33107e-14
0.00391566
0.00400846
0.0668387
0.0875371
0.0854347
0.0251496
0.0244194
0.0217615
0.346115
0.593141
0.461882
0.22688
0.0104942
0.0106596
0.0154384
0.0205522
0.048471
0.0376419
0.0357377
0.00903053
0.0185778
0.0915769
0.0600837
0.0229788
0.0229265
0.0228614
0.384264
0.939966
0.929724
0.883888
0.800037
0.225426
0.0206598
0.0141852
0.0143472
0.0357937
0.0448491
0.0357463
0.466114
0.386172
0.28536
0.177211
0.10636
0.124696
0.487554
0.98021
0.990742
0.991185
0.926745
0.892771
0.858545
0.593432
0.339323
0.262899
0.243547
0.25981
0.234275
0.990852
0.913963
0.654685
0.563364
0.588364
0.842245
0.99438
0.997746
0.99777
0.99777
0.985543
0.960432
0.991597
0.989612
0.953726
0.91697
0.904208
0.931489
0.948535
0.999125
0.98809
0.834562
0.735877
0.77597
0.977431
0.997763
0.99777
0.99777
0.99777
0.997768
0.997773
0.994132
0.993779
0.997777
0.997776
0.997775
0.994975
0.992117
0.999124
0.999119
0.923128
0.755748
0.747641
0.903384
0.989458
0.997767
0.99777
0.997769
0.997629
0.997772
0.997753
0.997776
0.997777
0.997776
0.997776
0.996388
0.987409
0.982941
0.980668
0.960136
0.863437
0.809619
0.812749
0.894027
0.944186
0.953246
0.921379
0.940504
0.979352
0.994047
0.995735
0.996708
0.997172
0.965754
0.82924
0.796611
0.37642
0.363403
0.365693
0.385564
0.35098
0.273707
0.230244
0.253951
0.282289
0.243587
0.266442
0.313013
0.33817
0.386919
0.486907
0.457467
0.227072
0.122553
0.142171
6.00315e-27
4.17637e-28
1.7927e-26
3.63304e-27
-2.81699e-08
1.30429e-27
9.54015e-17
5.84239e-16
-4.98578e-10
-7.72186e-27
1.16814e-25
5.32707e-20
1.61881e-09
-1.83045e-19
0.00221569
0.00100703
9.56529e-15
-7.79818e-09
1.79363e-19
4.5711e-09
3.26436e-09
6.03649e-09
2.00339e-08
4.07495e-08
3.90355e-08
5.07385e-08
4.36546e-07
2.08247e-07
1.96042e-08
3.61441e-08
2.46749e-07
4.97629e-07
-7.42117e-09
-2.97914e-07
-1.187e-07
-5.69401e-24
2.89221e-05
3.86173e-05
5.85445e-08
3.73157e-08
7.46885e-08
5.31902e-08
8.46548e-08
4.89273e-07
1.99389e-06
4.41117e-06
2.08502e-07
1.26497e-06
2.6084e-09
4.03857e-07
3.86864e-06
3.06257e-05
2.33932e-05
2.23051e-05
3.28956e-05
0.000114005
8.39991e-05
9.92719e-08
4.26888e-08
1.28151e-07
1.93378e-08
1.87579e-08
7.40478e-06
0.000127547
0.000153923
2.39617e-05
3.47759e-06
9.88582e-09
5.31003e-07
1.78738e-06
4.3253e-05
0.000116181
0.000116947
0.000117394
0.000118603
0.000100823
3.62916e-07
1.57429e-07
1.40179e-07
1.96426e-07
1.43551e-06
0.000104998
0.000215919
0.000216524
0.000145126
9.99235e-06
3.65084e-05
8.15417e-05
1.9058e-05
1.10258e-05
4.17974e-05
0.000110871
0.000118603
0.000118579
1.9764e-05
1.57203e-06
2.24011e-06
2.07117e-07
1.67633e-05
5.86072e-05
0.000216021
0.000218607
0.000216836
0.000216889
9.13268e-05
0.000126547
0.000174778
0.000147499
1.01924e-05
1.29928e-05
0.000106484
0.00011858
6.27389e-05
1.23257e-05
1.2452e-05
7.55652e-06
2.23152e-05
5.90808e-05
0.000125018
0.000220424
0.000209057
9.71998e-05
0.000102638
0.000149665
0.00013311
3.33907e-05
4.87512e-05
2.00719e-05
5.63197e-05
0.00010018
6.40065e-05
1.17674e-05
1.17725e-05
1.37673e-05
4.78899e-06
5.16136e-05
5.90566e-05
0.000147098
0.000196833
9.31876e-06
3.64954e-06
3.6383e-06
4.60239e-06
6.28405e-06
8.6056e-06
2.23396e-05
3.17096e-05
3.05724e-05
1.03088e-05
8.51449e-06
1.16876e-05
1.32832e-05
1.02579e-06
1.79175e-06
1.12959e-05
5.67841e-05
7.53112e-05
8.43096e-06
3.66397e-06
3.65348e-06
3.71833e-06
3.71806e-06
3.72165e-06
1.43557e-05
2.05989e-05
1.80046e-05
1.04754e-05
1.04358e-05
8.57724e-06
3.30591e-06
1.2935e-05
1.7522e-07
1.28947e-06
4.67983e-06
7.30596e-06
6.17022e-06
3.73636e-06
3.66888e-06
3.66336e-06
5.41971e-06
6.10775e-06
5.75708e-06
5.30828e-06
5.20985e-06
9.38822e-06
1.66808e-06
1.04708e-05
9.30774e-06
1.68551e-06
3.39751e-06
1.7419e-07
2.20416e-07
3.60289e-06
5.67122e-06
4.41842e-06
4.00437e-06
5.25546e-06
4.81357e-06
4.84352e-06
1.0729e-05
1.69076e-05
2.42959e-05
2.3575e-05
1.56406e-06
7.25141e-07
5.1033e-06
1.64085e-05
2.82777e-06
1.34997e-07
3.71919e-08
3.17789e-08
2.92782e-08
1.97295e-06
1.09363e-05
1.25538e-05
1.25595e-05
1.13521e-05
2.52122e-06
4.08739e-06
2.77686e-05
3.73172e-05
3.73172e-05
3.03375e-05
4.1876e-06
2.6435e-07
2.27038e-05
1.23613e-05
1.34995e-07
2.78917e-08
7.31039e-08
4.5521e-08
3.88761e-08
2.77145e-07
5.67017e-06
5.82453e-06
1.11136e-06
2.0637e-07
5.22401e-07
1.27441e-05
2.88928e-05
3.73172e-05
3.71688e-05
1.71701e-05
4.39081e-07
2.26932e-05
1.77428e-05
1.39815e-07
4.22655e-08
7.30164e-08
6.4721e-08
5.86587e-08
6.65089e-08
3.91175e-08
3.46784e-08
1.21482e-07
1.03865e-07
3.0144e-08
1.73824e-08
1.60384e-08
5.88928e-06
1.43019e-05
4.84677e-06
4.25972e-07
1.56022e-05
1.39877e-05
4.60356e-07
3.16203e-08
4.14291e-08
4.93076e-08
5.40861e-08
4.77989e-08
4.29094e-08
3.52191e-08
2.58588e-08
2.84713e-08
3.16851e-08
3.17883e-08
2.32912e-08
1.70565e-08
1.56158e-08
1.52972e-08
1.52826e-08
6.81722e-06
6.57485e-06
6.02768e-07
1.18603e-08
1.56075e-08
2.14733e-08
2.833e-08
3.01113e-08
3.13121e-08
3.00264e-08
2.46006e-08
2.47839e-08
2.99434e-08
3.7815e-08
4.03966e-08
3.2274e-08
2.30901e-08
1.52939e-08
1.52844e-08
3.86138e-06
3.11457e-06
2.91665e-07
4.4837e-09
5.36952e-09
6.96937e-09
8.75005e-09
1.09656e-08
1.29948e-08
1.49898e-08
1.62557e-08
1.74528e-08
2.16491e-08
3.36401e-08
5.06191e-08
5.90904e-08
3.60816e-08
5.34688e-08
6.93725e-07
6.76117e-07
2.38491e-07
1.70052e-07
1.72267e-09
2.09364e-09
2.55453e-09
3.10797e-09
3.83699e-09
4.963e-09
6.58193e-09
8.46501e-09
1.0049e-08
1.30947e-08
2.07631e-08
3.25272e-08
4.07559e-08
2.98173e-08
3.21763e-08
5.8241e-07
2.48632e-07
1.00413e-07
9.08542e-08
1.02267e-09
1.18782e-09
1.43518e-09
1.74414e-09
2.23588e-09
2.8594e-09
3.67797e-09
4.87621e-09
6.66312e-09
9.25955e-09
1.33252e-08
1.83301e-08
2.33051e-08
2.80666e-08
5.10691e-08
2.95783e-07
2.20982e-07
9.54601e-08
7.98329e-08
6.9714e-10
8.56032e-10
1.0603e-09
1.32505e-09
1.68916e-09
2.20161e-09
2.9071e-09
3.75925e-09
5.13364e-09
7.28388e-09
1.09304e-08
1.45245e-08
1.77774e-08
3.89776e-08
9.31123e-08
1.34516e-07
1.07563e-07
7.54541e-08
5.25996e-08
5.70519e-10
7.08727e-10
9.0155e-10
1.15476e-09
1.51824e-09
2.02479e-09
2.68328e-09
3.53983e-09
4.67086e-09
6.2962e-09
8.67641e-09
1.01553e-08
1.38298e-08
5.78715e-08
9.35514e-08
8.45376e-08
4.39494e-08
3.73903e-08
4.25878e-08
4.59903e-10
6.01756e-10
7.88505e-10
1.05067e-09
1.45126e-09
2.03279e-09
2.88636e-09
4.00135e-09
5.30847e-09
6.74579e-09
8.92364e-09
9.87526e-09
1.16248e-08
6.47732e-08
7.3795e-08
3.28848e-08
2.79872e-08
2.69115e-08
4.72028e-08
3.81399e-10
5.00513e-10
6.75212e-10
9.46519e-10
1.38821e-09
2.09482e-09
3.24781e-09
4.87118e-09
6.8352e-09
8.74411e-09
1.26877e-08
1.35213e-08
9.96576e-09
3.53908e-08
5.13294e-08
2.66383e-08
2.66295e-08
2.68953e-08
5.04572e-08
2.89889e-10
3.95478e-10
5.50911e-10
8.09981e-10
1.2845e-09
2.10685e-09
3.62431e-09
6.07941e-09
9.3769e-09
1.32451e-08
2.06582e-08
2.74692e-08
9.96653e-09
1.25573e-08
3.08438e-08
5.60305e-08
4.26324e-08
1.54554e-07
5.79074e-08
2.1206e-10
2.87625e-10
4.1849e-10
6.5152e-10
1.11215e-09
2.02104e-09
3.81879e-09
7.09655e-09
1.21821e-08
1.86688e-08
4.38737e-08
1.12446e-07
7.31559e-08
1.54029e-08
1.57292e-08
9.09805e-08
2.11645e-07
2.44215e-07
1.41458e-06
1.3677e-10
1.9499e-10
2.92806e-10
4.84185e-10
9.00247e-10
1.80773e-09
3.77849e-09
7.74383e-09
1.45682e-08
2.34467e-08
5.87586e-08
2.74434e-07
8.02957e-07
6.13473e-07
1.57083e-08
5.87621e-08
2.3569e-07
3.74413e-07
2.75848e-06
8.31516e-11
1.17036e-10
1.82464e-10
3.2473e-10
6.56325e-10
1.45605e-09
3.35263e-09
7.51714e-09
1.5499e-08
2.72308e-08
6.54928e-08
2.86846e-07
2.33856e-06
6.76321e-06
2.87947e-06
5.77691e-08
1.79961e-07
3.89328e-07
2.8247e-06
4.38536e-11
6.38133e-11
1.02107e-10
1.9148e-10
4.22359e-10
1.03091e-09
2.59222e-09
6.24627e-09
1.35814e-08
2.65498e-08
6.11006e-08
2.21682e-07
1.55782e-06
6.82309e-06
6.81393e-06
1.61623e-06
1.64814e-07
3.1313e-07
2.63996e-06
2.09365e-11
3.06553e-11
5.0177e-11
9.9191e-11
2.36307e-10
6.28024e-10
1.70988e-09
4.42342e-09
1.02637e-08
2.12992e-08
4.92725e-08
1.33361e-07
4.79849e-07
2.90706e-06
6.88841e-06
5.96203e-06
1.64619e-07
2.58283e-07
9.15455e-07
8.89032e-12
1.30519e-11
2.16656e-11
4.45114e-11
1.11721e-10
3.21145e-10
9.50649e-10
2.66541e-09
6.80103e-09
1.58005e-08
3.11836e-08
7.71796e-08
1.80126e-07
6.78695e-07
4.81027e-06
6.72124e-06
4.61371e-06
6.8318e-07
1.74697e-06
3.26746e-12
4.83194e-12
8.01824e-12
1.63094e-11
4.23489e-11
1.29628e-10
4.17517e-10
1.27102e-09
3.41617e-09
8.42396e-09
1.84839e-08
4.20028e-08
9.52128e-08
1.89087e-07
5.78326e-07
5.12396e-06
5.78646e-06
2.47502e-06
2.47424e-06
1.01097e-12
1.42468e-12
2.42847e-12
5.08508e-12
1.37751e-11
4.56012e-11
1.64704e-10
5.81366e-10
1.86965e-09
5.28493e-09
1.3262e-08
2.85455e-08
6.62536e-08
1.4183e-07
2.80304e-07
7.2366e-07
2.11933e-06
1.78101e-06
8.73165e-07
2.54616e-13
3.5528e-13
5.63676e-13
1.1111e-12
2.89552e-12
9.79693e-12
3.88816e-11
1.59602e-10
6.08066e-10
2.06918e-09
6.2721e-09
1.62415e-08
4.12482e-08
9.36741e-08
1.60525e-07
2.21725e-07
4.0585e-07
4.28466e-07
1.74037e-07
4.6188e-14
5.90867e-14
8.75568e-14
1.60455e-13
3.66898e-13
1.08542e-12
4.1662e-12
1.87215e-11
8.5215e-11
3.38703e-10
1.10127e-09
3.09191e-09
7.45052e-09
2.28825e-08
8.29718e-08
1.40431e-07
1.09118e-07
1.04588e-07
1.04598e-07
)
;

boundaryField
{
    leftWall
    {
        type            zeroGradient;
    }
    rightWall
    {
        type            zeroGradient;
    }
    lowerWall
    {
        type            zeroGradient;
    }
    atmosphere
    {
        type            inletOutlet;
        inletValue      uniform 0;
        value           nonuniform List<scalar> 
46
(
4.31651e-09
6.81604e-08
1.13439e-07
5.94765e-08
4.52665e-08
1.94998e-08
0
0
0
0
0
0
0
0
0
0
0
0
0
8.75017e-16
2.30663e-15
7.34205e-15
2.01577e-14
0
0
0
0
0
0
0
0
0
0
0
0
0
0
0
0
0
0
0
1.40431e-07
1.09118e-07
1.04588e-07
1.04598e-07
)
;
    }
    defaultFaces
    {
        type            empty;
    }
}


// ************************************************************************* //
