/*--------------------------------*- C++ -*----------------------------------*\
| =========                 |                                                 |
| \\      /  F ield         | OpenFOAM: The Open Source CFD Toolbox           |
|  \\    /   O peration     | Version:  2312                                  |
|   \\  /    A nd           | Website:  www.openfoam.com                      |
|    \\/     M anipulation  |                                                 |
\*---------------------------------------------------------------------------*/
FoamFile
{
    version     2.0;
    format      ascii;
    arch        "LSB;label=32;scalar=64";
    class       volScalarField;
    location    "4.7";
    object      alpha.water;
}
// * * * * * * * * * * * * * * * * * * * * * * * * * * * * * * * * * * * * * //

dimensions      [0 0 0 0 0 0 0];

internalField   nonuniform List<scalar> 
2268
(
3.29111e-07
3.29016e-07
2.6662e-07
8.04307e-08
1.39697e-08
2.49199e-09
1.18759e-09
7.46171e-10
3.97587e-10
1.97865e-10
1.26849e-10
9.96054e-11
8.32682e-11
7.40877e-11
7.14982e-11
7.62808e-11
9.14377e-11
1.21956e-10
1.58844e-10
2.67565e-10
5.35221e-10
1.17629e-09
1.41366e-09
2.12672e-07
1.51979e-07
6.51061e-08
2.60632e-08
1.25737e-09
4.79995e-10
4.83234e-10
4.7194e-10
3.77831e-10
3.22608e-10
2.9815e-10
2.55319e-10
2.10476e-10
1.85689e-10
1.56615e-10
1.21429e-10
1.30356e-10
1.67222e-10
2.70669e-10
4.21712e-10
7.60964e-10
1.4055e-09
1.50943e-09
3.85513e-08
2.66374e-08
1.41419e-08
2.73799e-09
4.19314e-09
9.56729e-09
9.62531e-09
8.85593e-09
2.53178e-09
8.48808e-10
7.827e-10
6.58445e-10
7.33733e-10
9.4221e-10
8.78333e-10
6.13773e-10
3.16246e-10
4.06179e-10
6.4852e-10
7.86141e-10
1.08226e-09
1.37531e-09
1.29447e-09
5.15973e-08
3.63229e-08
2.59687e-09
2.74327e-09
3.69739e-10
3.61572e-10
3.59376e-10
3.57593e-10
3.51983e-10
3.50399e-10
3.48436e-10
3.46479e-10
9.44186e-10
3.07779e-09
4.16013e-09
4.18647e-09
2.83276e-09
1.13827e-09
6.11535e-10
6.92164e-10
8.26988e-10
8.9304e-10
6.66587e-10
0.0359753
0.0362502
0.0366012
0.0367637
0.0348537
0.0305228
0.0240503
0.0164466
0.00895526
0.00271655
6.84422e-06
-1.16705e-19
-2.65882e-20
-1.65131e-21
1.99154e-22
2.64264e-21
-9.0324e-23
-1.11588e-14
2.1374e-10
2.45313e-10
3.03005e-10
2.54362e-10
2.92862e-10
0.706324
0.704449
0.70227
0.6996
0.69334
0.681781
0.660533
0.624849
0.574438
0.502956
0.405374
0.300586
0.20933
0.127158
0.061258
0.0186024
0.00146891
7.39016e-08
7.81909e-19
-1.17309e-10
2.64965e-11
3.95472e-11
3.2173e-11
0.998496
0.998242
0.997161
0.995997
0.996473
0.997629
0.998689
0.999305
0.999566
0.999638
0.999431
0.982019
0.937405
0.871398
0.774688
0.635148
0.456893
0.261987
0.0703992
7.08187e-15
3.74642e-22
1.39287e-19
4.08303e-22
0.999731
0.999731
0.999732
0.999732
0.999685
0.999733
0.999733
0.999733
0.999731
0.999733
0.999733
0.999733
0.999733
0.999733
0.997872
0.989731
0.956513
0.85605
0.696349
0.477838
0.273829
0.15422
0.148132
0.01518
0.00887302
0.00508651
0.00634641
0.00817136
0.011121
0.0111216
0.0101419
0.0100456
0.0100841
0.00982938
0.00620735
0.00507878
0.00416325
0.00427312
0.00418757
0.00352253
0.00435546
0.00448043
0.0230154
0.00356279
0.0016876
0.00168551
0.00167303
0.00123884
0.0009445
0.0010436
0.00129245
0.00121001
0.000571211
0.000222355
0.000218932
0.000220567
0.000220682
0.000221799
0.000221886
0.000223687
0.000223447
0.00565573
0.00366752
0.0086032
0.0195006
0.0224785
0.00313428
0.000277186
0.000275201
0.000277093
0.000275185
0.000277079
0.00614788
0.0439997
0.0946354
0.154626
0.198618
0.245662
0.281
0.266404
0.294547
0.376038
0.469863
0.56773
0.610968
0.599297
0.563219
0.493978
0.469367
0.473973
0.467509
0.401179
0.405823
0.451277
0.560766
0.704241
0.792905
0.843943
0.625796
0.732241
0.923964
0.942359
0.96952
0.973165
0.941871
0.919424
0.958469
0.970401
0.971777
0.966777
0.940685
0.627879
0.48055
0.560375
0.911482
0.917749
0.917688
0.738941
0.827091
0.992268
0.989574
0.991269
0.991326
0.947037
0.948301
0.974615
0.974617
0.974608
0.974615
0.974609
0.922899
0.505803
0.539495
0.86115
0.887619
0.887873
0.890443
0.895659
0.992235
0.990408
0.94303
0.980761
0.977699
0.938774
0.971632
0.974617
0.948691
0.934735
0.970438
0.971008
0.82136
0.835571
0.891571
0.857789
0.86507
0.919364
0.989335
0.992383
0.953079
0.908875
0.927664
0.971571
0.940105
0.969886
0.948212
0.800832
0.865628
0.883261
0.969613
0.974738
0.974694
0.946384
0.858676
0.874356
0.919743
0.994365
0.999724
0.999732
0.999732
0.999732
0.999733
0.999722
0.99973
0.999733
0.999733
0.999733
0.999733
0.999733
0.999733
0.99937
0.986311
0.974362
0.985741
0.985043
0.956136
0.910182
0.886422
0.890459
0.960769
0.981548
0.987859
0.994455
0.993302
0.989668
0.989086
0.991793
0.995342
0.996262
0.996733
0.99729
0.997477
0.998547
0.999371
0.999089
0.999317
0.999163
0.999143
0.999158
0.998616
0.998153
0.984599
0.522627
0.46771
0.444654
0.574534
0.678631
0.729376
0.782255
0.794219
0.788879
0.796119
0.805907
0.822097
0.853468
0.876534
0.907319
0.926846
0.929746
0.943104
0.959877
0.966557
0.96144
0.944394
0.909735
0.008148
8.85662e-07
0.00185052
0.0456813
0.178697
0.206274
0.19151
0.188533
0.169626
0.0858262
0.0515618
0.0553489
0.0718864
0.128571
0.212529
0.280586
0.304171
0.319399
0.327058
0.338558
0.369673
0.387151
0.269786
4.89774e-12
1.30012e-06
0.00046093
0.00107197
5.43905e-20
-5.28166e-20
-1.11703e-19
6.46672e-20
-1.35509e-09
-3.86183e-07
-4.25274e-07
-5.93407e-07
-2.52669e-07
3.54804e-08
6.24933e-09
2.27215e-09
-7.10763e-07
-2.59343e-07
7.57061e-17
7.0312e-17
9.47094e-12
4.78524e-07
6.189e-08
5.02039e-12
7.29066e-08
2.90054e-07
4.19697e-22
3.39206e-20
-7.06456e-21
0
-9.90664e-25
1.04702e-06
0.000110132
0.000192065
0.000223825
0.000280505
0.000305739
0.000295653
0.000281933
0.000266426
0.000245402
0.00266844
0.00799093
0.0100594
0.00523896
0.000711312
2.79867e-07
9.43297e-11
4.32599e-25
-3.62139e-23
-4.19462e-26
1.09276e-22
4.4808e-05
0.000104278
0.000176316
0.000268277
0.000524499
0.00189428
0.00719271
0.00910635
0.0056619
0.00156907
0.000253219
0.000246548
0.00604095
0.0187051
0.0187054
0.0187059
0.0105724
2.15762e-06
1.65775e-06
0.000234949
0.000392818
0.000738102
2.35419e-05
0.000314733
2.96636e-05
1.34431e-05
0.00038986
0.0106208
0.016795
0.0167957
0.0167951
0.0167955
0.0104741
0.00199609
0.00360858
0.0153946
0.0187045
0.0187049
0.0187044
0.0161094
5.78814e-05
0.000567003
0.000511592
0.0049264
0.00662888
0.00277326
1.06811e-07
8.28721e-08
-5.04508e-17
0.00283186
0.0166663
0.0167795
0.0117726
0.00499459
0.00423696
0.00408056
0.0042331
0.00605596
0.008714
0.00990676
0.00878537
0.00526605
0.00344134
0.000121946
0.00111327
0.00496248
0.00694636
0.0069723
0.00696232
0.000228471
1.00683e-06
5.04279e-17
0.000353579
0.0021253
0.000357308
1.95706e-06
8.62262e-07
1.46443e-06
2.83077e-06
4.91778e-08
9.37087e-11
4.57199e-12
-7.61016e-09
2.25976e-07
2.44502e-07
1.45726e-08
0.000118313
0.000687482
0.00631021
0.0069723
0.00697087
0.00698942
0.00644239
0.00123141
-1.43516e-18
4.42771e-06
-2.70239e-10
9.45304e-06
9.38633e-06
9.14009e-07
1.29846e-06
4.24015e-06
7.24393e-06
5.73022e-06
1.93277e-06
4.51341e-07
7.7779e-07
9.62394e-07
3.53166e-06
0.000591774
0.000785236
0.00151874
0.0032139
0.00699875
0.00698302
0.00700677
0.00211081
3.02227e-21
-6.37509e-09
-8.20816e-10
5.37837e-07
4.32318e-06
7.04542e-06
6.41322e-06
1.27609e-05
1.90787e-05
1.90288e-05
5.08335e-06
4.99257e-07
1.91939e-06
8.47029e-06
1.92526e-05
0.000618628
0.000564765
7.56946e-05
2.49151e-08
0.00153671
0.00229942
0.00139235
0.000497082
3.07258e-06
2.60019e-07
2.95199e-08
4.44346e-07
4.52405e-06
7.34152e-06
1.26719e-05
1.92534e-05
1.92534e-05
1.92534e-05
1.32665e-05
4.05462e-06
1.5733e-05
1.93471e-05
1.9344e-05
0.000352338
0.000223351
7.98271e-06
7.23779e-09
2.44003e-08
6.85648e-09
6.51655e-06
7.42606e-06
1.78685e-06
6.13598e-07
1.16346e-06
2.33461e-06
2.42983e-06
5.90732e-07
5.25981e-08
7.97669e-06
1.92499e-05
1.92534e-05
3.62085e-06
4.12647e-06
1.81239e-05
1.9278e-05
1.93472e-05
1.38739e-06
9.09067e-07
9.34829e-07
1.0946e-07
4.56602e-08
2.51701e-08
1.26797e-06
3.93974e-06
1.27061e-06
1.94237e-06
2.50242e-06
2.52363e-06
7.92084e-07
7.39067e-08
2.20078e-08
4.38781e-09
5.86879e-06
5.00647e-06
6.16473e-07
1.40156e-08
1.85238e-06
1.28392e-05
7.01835e-06
2.15428e-06
9.29284e-07
3.93818e-07
1.89685e-07
1.68995e-07
3.9745e-08
1.80107e-07
9.6678e-07
1.07551e-06
1.85942e-06
1.62532e-06
7.6579e-07
2.43937e-07
7.38981e-08
3.38557e-08
1.17472e-08
1.01268e-09
1.03488e-09
3.66494e-08
1.44893e-08
1.75793e-09
2.09946e-08
3.78691e-07
1.24496e-06
5.17929e-07
1.8894e-07
1.30123e-07
1.1451e-07
4.48109e-08
3.84281e-08
2.14573e-07
5.80311e-07
5.62832e-07
3.24456e-07
1.0686e-07
3.04623e-08
1.33556e-08
1.45674e-08
1.02465e-08
3.78221e-09
1.60587e-09
1.15251e-09
1.0415e-09
9.27531e-10
4.80726e-07
6.58408e-07
2.5445e-07
1.36481e-07
5.5119e-08
4.67874e-08
5.05047e-08
3.38465e-08
3.82148e-08
5.96704e-08
6.65192e-08
6.30883e-08
2.73698e-08
1.04456e-08
4.96047e-09
2.91506e-09
2.20184e-09
2.37325e-09
2.34569e-09
1.72242e-09
1.21552e-09
9.91606e-10
9.43127e-10
3.76539e-07
6.59403e-07
4.41136e-08
2.0088e-08
1.6014e-08
1.95033e-08
2.24291e-08
1.80994e-08
1.99117e-08
1.84292e-08
7.17274e-09
8.3432e-09
4.35519e-09
2.64075e-09
1.64337e-09
1.17777e-09
1.09825e-09
1.17728e-09
1.18355e-09
1.04016e-09
1.01933e-09
1.07491e-09
9.76682e-10
2.13288e-09
3.01956e-07
1.58468e-08
7.06057e-09
6.70978e-09
9.87211e-09
9.52371e-09
9.35565e-09
8.98511e-09
6.05113e-09
3.073e-09
2.15776e-09
1.47545e-09
9.48491e-10
7.23333e-10
7.14939e-10
8.12237e-10
8.46052e-10
8.15641e-10
7.4568e-10
7.81394e-10
8.97959e-10
9.18203e-10
1.27811e-08
2.03606e-08
1.73186e-08
4.20941e-09
3.18042e-09
4.35479e-09
4.52922e-09
4.25743e-09
3.1487e-09
2.04205e-09
1.28962e-09
8.32666e-10
5.30076e-10
3.88869e-10
3.44016e-10
3.5364e-10
3.79997e-10
3.81948e-10
3.70238e-10
3.61782e-10
4.04882e-10
5.50262e-10
8.16698e-10
6.00537e-10
2.86351e-09
1.87917e-08
3.0412e-09
1.62422e-09
2.16622e-09
2.12172e-09
1.66382e-09
1.08468e-09
7.03855e-10
4.5723e-10
3.00537e-10
2.10975e-10
1.65732e-10
1.47501e-10
1.41542e-10
1.41693e-10
1.43129e-10
1.44422e-10
1.5222e-10
1.8369e-10
2.72426e-10
4.2334e-10
5.05351e-10
1.86187e-09
1.87988e-08
2.10682e-09
8.24703e-10
9.88037e-10
8.36373e-10
6.13071e-10
4.06459e-10
2.79779e-10
1.93165e-10
1.37486e-10
1.00804e-10
7.75994e-11
6.32778e-11
5.42756e-11
5.09347e-11
5.19665e-11
5.53241e-11
6.25352e-11
7.80841e-11
1.17465e-10
2.07185e-10
3.2676e-10
1.44232e-09
1.87189e-08
1.35351e-09
4.55561e-10
4.8696e-10
3.80447e-10
2.93969e-10
2.30372e-10
1.87732e-10
1.48437e-10
1.1116e-10
7.87428e-11
5.40561e-11
3.68993e-11
2.60838e-11
2.05949e-11
1.9198e-11
2.08222e-11
2.49493e-11
3.34502e-11
5.12194e-11
7.51194e-11
1.62278e-10
3.54263e-10
1.86566e-08
8.0183e-10
3.10736e-10
3.1133e-10
2.73928e-10
2.55584e-10
2.40888e-10
2.28075e-10
1.9659e-10
1.44213e-10
9.53322e-11
5.92395e-11
3.52658e-11
2.03407e-11
1.22887e-11
8.47178e-12
7.93447e-12
9.68028e-12
1.3599e-11
2.04116e-11
3.4518e-11
5.21403e-11
1.2022e-10
1.85255e-08
4.72428e-10
2.7126e-10
2.86849e-10
3.10088e-10
3.55895e-10
3.65871e-10
3.47893e-10
2.90263e-10
2.07986e-10
1.30499e-10
7.67224e-11
4.31845e-11
2.30031e-11
1.15589e-11
5.9894e-12
3.67771e-12
3.828e-12
5.45086e-12
8.75417e-12
1.29596e-11
2.63276e-11
4.05441e-11
1.839e-08
3.35134e-10
2.82578e-10
3.56601e-10
4.76245e-10
6.53596e-10
6.95124e-10
5.13684e-10
4.20867e-10
2.95952e-10
1.75726e-10
9.86579e-11
5.42081e-11
2.83967e-11
1.36679e-11
6.08283e-12
2.66708e-12
1.68597e-12
2.14317e-12
3.433e-12
5.9996e-12
9.12062e-12
1.85135e-11
1.84743e-08
3.03558e-10
3.37267e-10
4.68048e-10
7.68566e-10
1.07497e-09
1.69253e-09
7.33186e-10
5.56772e-10
3.93657e-10
2.21186e-10
1.18964e-10
6.45542e-11
3.42617e-11
1.6433e-11
7.00721e-12
2.7411e-12
1.13282e-12
8.80834e-13
1.36128e-12
2.1201e-12
4.544e-12
6.66598e-12
1.90128e-08
3.28702e-10
4.54559e-10
5.02854e-10
5.48751e-10
5.99648e-10
3.13084e-09
8.44229e-10
6.46648e-10
4.84042e-10
2.56759e-10
1.31227e-10
7.1033e-11
3.81013e-11
1.88211e-11
8.35172e-12
3.19942e-12
1.13659e-12
4.25618e-13
4.71867e-13
9.05465e-13
1.33804e-12
2.88796e-12
1.93542e-08
4.023e-10
6.51596e-10
5.46283e-10
2.90187e-09
9.35776e-08
5.04926e-08
1.25069e-09
7.04112e-10
5.90182e-10
2.87626e-10
1.34468e-10
7.08368e-11
3.92861e-11
2.01793e-11
9.27118e-12
3.6301e-12
1.2011e-12
3.59005e-13
1.88623e-13
2.56348e-13
5.90838e-13
8.5473e-13
2.0333e-08
4.03739e-10
1.40765e-09
2.54152e-08
3.84764e-07
6.2599e-07
2.6333e-07
6.37537e-10
7.72268e-10
6.47288e-10
2.7101e-10
1.16973e-10
6.28501e-11
3.62419e-11
1.99444e-11
9.64884e-12
3.96815e-12
1.3445e-12
3.86884e-13
7.69348e-14
1.06154e-13
1.60401e-13
3.29007e-13
2.06168e-08
7.20691e-10
1.24658e-08
2.03411e-07
8.93644e-07
8.66133e-07
1.39019e-07
6.52362e-10
1.17414e-09
6.30656e-10
2.2405e-10
8.98466e-11
4.97008e-11
3.05027e-11
1.7717e-11
9.14532e-12
4.00593e-12
1.45067e-12
4.13695e-13
6.32251e-14
3.22438e-14
6.61042e-14
9.55902e-14
2.05333e-08
2.61001e-09
7.99816e-08
7.10992e-07
9.49111e-07
6.32244e-07
1.42313e-09
1.79512e-09
1.63147e-09
5.39337e-10
1.66853e-10
6.34061e-11
3.65232e-11
2.30055e-11
1.40198e-11
7.78622e-12
3.69981e-12
1.43838e-12
4.30221e-13
8.89684e-14
1.24198e-14
1.50385e-14
3.43154e-14
1.48133e-08
6.79024e-09
2.20172e-07
9.49111e-07
9.48435e-07
8.43358e-08
9.2736e-10
2.63975e-09
1.53899e-09
3.99899e-10
1.13023e-10
4.18194e-11
2.4864e-11
1.56617e-11
9.74787e-12
5.82468e-12
3.05395e-12
1.29732e-12
4.16642e-13
8.79459e-14
6.03272e-15
5.86484e-15
8.34584e-15
2.77872e-08
9.75969e-09
2.76149e-07
8.84556e-07
3.52395e-07
1.38815e-09
1.38749e-09
2.31909e-09
9.1841e-10
2.52603e-10
7.05622e-11
2.64091e-11
1.55957e-11
9.61195e-12
5.91979e-12
3.72638e-12
2.17798e-12
1.03606e-12
3.71802e-13
8.60286e-14
4.55548e-15
1.3859e-15
2.78024e-15
3.85845e-08
1.4321e-08
2.83867e-07
2.81135e-07
7.15237e-08
2.47254e-09
2.47348e-09
1.58552e-09
4.77574e-10
1.50062e-10
4.03557e-11
1.53102e-11
9.08845e-12
5.33469e-12
3.12918e-12
1.99702e-12
1.299e-12
7.13404e-13
2.88456e-13
8.04841e-14
5.34581e-15
6.17539e-16
6.97912e-16
4.5143e-08
1.43876e-08
2.41823e-07
1.70407e-07
2.5202e-08
4.93154e-09
3.16716e-09
1.34777e-09
3.66009e-10
8.77193e-11
2.05251e-11
8.21589e-12
4.91512e-12
2.69411e-12
1.44834e-12
8.76578e-13
6.08467e-13
3.93996e-13
1.91838e-13
6.09959e-14
8.09829e-15
3.32253e-16
1.96938e-16
3.80685e-08
1.22102e-08
4.24069e-08
4.44304e-09
4.05855e-09
4.68055e-09
3.19781e-09
1.43332e-09
4.08248e-10
6.72652e-11
9.75334e-12
3.95353e-12
2.40177e-12
1.25127e-12
5.99317e-13
3.20195e-13
2.15587e-13
1.61168e-13
9.90016e-14
4.0123e-14
6.36552e-15
2.95563e-16
5.13939e-17
4.90501e-08
1.05045e-08
1.61772e-09
1.61308e-09
3.05647e-09
7.37089e-09
4.05658e-09
1.51763e-09
4.03806e-10
6.23678e-11
5.35682e-12
1.66945e-12
1.03343e-12
5.18363e-13
2.21473e-13
9.54231e-14
5.62384e-14
4.54451e-14
3.67811e-14
2.02613e-14
4.70321e-15
2.77215e-16
1.73679e-17
7.56701e-08
8.38277e-09
1.61308e-09
1.61307e-09
1.68217e-08
1.11149e-08
3.90898e-09
1.22086e-09
2.83048e-10
3.91403e-11
2.66615e-12
5.60917e-13
3.57986e-13
1.80478e-13
7.12307e-14
2.52777e-14
1.11066e-14
8.37109e-15
8.6758e-15
7.54571e-15
2.4525e-15
2.33319e-16
1.08495e-17
9.28603e-08
1.67744e-09
1.61308e-09
1.33253e-08
2.36235e-08
9.86693e-09
2.86147e-09
6.49988e-10
1.09169e-10
1.05925e-11
5.16074e-13
1.20782e-13
8.5441e-14
4.48902e-14
1.7227e-14
5.18296e-15
1.5742e-15
1.00082e-15
1.42898e-15
1.90139e-15
1.0045e-15
1.61184e-16
1.34639e-17
1.34832e-07
4.51466e-08
2.5812e-08
4.75682e-08
1.7931e-08
4.30008e-09
7.58223e-10
1.08947e-10
1.00883e-11
4.90468e-13
1.94064e-14
1.28996e-14
1.04441e-14
5.93012e-15
2.34975e-15
6.31957e-16
1.42903e-16
7.55962e-17
1.67116e-16
3.63497e-16
3.61901e-16
9.39596e-17
8.94855e-18
0.95617
0.982597
0.98474
0.985114
0.963115
0.961631
0.961289
0.970398
0.847939
0.85099
0.796
0.616774
0.0440999
0.00358159
6.44366e-24
-1.07836e-23
-6.43232e-07
-3.16089e-07
8.44701e-07
7.19363e-06
0.000226312
0.00014491
6.11318e-05
0.00013704
0.00010421
0.00010707
0.000499175
0.00102829
0.000104144
0.0001053
0.00129708
0.00203929
0.00195564
0.000451415
0.00014828
0.000356333
2.88281e-08
1.45488e-08
1.46419e-07
7.50379e-08
4.30747e-06
1.75424e-06
1.55385e-06
6.57476e-07
1.92752e-05
1.76314e-05
1.00367e-05
3.24889e-06
1.9347e-05
1.92546e-05
1.92985e-05
1.34787e-05
1.86922e-05
1.66445e-05
1.3351e-05
7.2364e-06
1.54802e-06
5.16892e-07
1.08652e-06
2.12673e-05
4.08572e-07
5.50819e-07
2.07558e-05
4.32755e-05
4.15988e-07
6.00146e-07
2.45793e-05
4.26101e-05
5.5925e-07
2.94278e-07
1.03778e-06
9.79008e-06
3.71841e-07
2.17117e-07
2.85584e-07
6.10978e-07
3.14589e-08
6.01817e-08
1.61432e-07
4.60095e-07
2.59886e-09
2.61728e-09
5.03904e-08
3.07361e-07
2.57077e-09
2.5562e-09
2.23885e-08
8.35979e-08
3.00865e-09
3.92197e-09
8.82356e-09
1.18451e-08
6.98892e-10
1.08743e-09
9.82118e-10
1.40192e-09
1.87222e-10
1.99971e-10
2.94092e-10
3.53282e-10
6.10996e-11
8.51539e-11
1.0071e-10
1.34591e-10
2.50939e-11
2.99512e-11
4.44175e-11
5.32492e-11
1.05995e-11
1.45283e-11
1.7003e-11
2.32758e-11
4.07627e-12
4.75559e-12
6.98621e-12
7.7219e-12
1.31856e-12
1.9095e-12
2.13339e-12
3.08658e-12
4.48579e-13
5.25651e-13
7.89215e-13
8.25416e-13
1.53616e-13
1.94375e-13
2.08057e-13
2.95264e-13
4.59288e-14
5.06316e-14
6.88208e-14
6.63498e-14
1.51187e-14
1.62812e-14
1.71694e-14
2.20221e-14
3.76705e-15
4.47057e-15
5.33187e-15
5.2609e-15
1.10142e-15
1.22454e-15
1.35466e-15
1.53313e-15
2.84155e-16
3.358e-16
3.66932e-16
3.79953e-16
6.65794e-17
7.29277e-17
8.47497e-17
9.27637e-17
1.29955e-17
1.57058e-17
1.74481e-17
1.92401e-17
2.60281e-18
2.89326e-18
3.47476e-18
3.84554e-18
5.55985e-19
5.48229e-19
5.95376e-19
6.58593e-19
1.41411e-19
8.98025e-20
8.66475e-20
8.70946e-20
0.986036
0.992379
0.930489
0.908353
0.907215
0.972159
0.972814
0.970513
0.607927
0.291422
0.422009
0.657011
0.938905
0.974741
0.974745
0.946519
0.887546
0.922459
0.919561
0.985931
0.978749
0.905649
0.903508
0.921056
0.964914
0.925898
0.542352
0.0250071
0.000410005
8.87408e-09
0.0838534
0.670409
0.904887
0.938466
0.937576
0.937409
0.937046
0.919859
0.525898
0.593386
0.647712
0.62578
0.699984
0.700878
0.362373
0.000341347
-1.82922e-21
2.71577e-19
4.97041e-14
2.39661e-14
0.0570354
0.356973
0.630029
0.714502
0.741853
0.72761
0.739783
9.90502e-21
0.0100051
0.147628
0.238948
0.217587
0.0871316
4.14366e-09
8.27685e-09
3.64719e-05
0.000230203
6.24474e-06
4.14175e-14
5.34233e-08
0.00156851
0.0377195
0.0752713
0.0881713
0.0648909
0.0440999
7.80955e-06
3.43596e-06
0.00808868
0.0697041
0.0815276
0.0213481
0.00066136
0.000274438
8.22177e-05
0.000423547
0.000408169
2.38764e-14
1.43935e-09
5.52376e-08
0.000115271
0.000373561
0.000579934
0.000503236
0.000507802
0.000137788
3.98271e-06
0.000517314
0.0561993
0.0921122
0.0615799
0.0100554
0.00132362
0.000153196
0.000287229
0.00115199
0.0011071
0.000817532
0.000203299
0.000240725
0.000450301
0.000487674
0.000540316
0.000849244
0.000867327
0.00029977
0.00128706
0.029943
0.0512486
0.0476138
0.0273841
0.00509639
0.00130621
1.42338e-05
7.32219e-06
0.00204243
0.00272442
0.00270565
0.00194911
0.00135316
0.00170799
0.00200843
0.00170581
0.00202016
0.00188095
0.00181994
0.000113153
0.000110117
0.000107141
0.00499325
0.00835806
0.00564749
0.000277651
7.26297e-06
2.12261e-05
0.0019775
0.00313374
0.00312565
0.00313374
0.00312564
0.00172897
0.000872645
0.000893861
0.000857692
0.000949067
0.000183575
0.000355648
0.000103997
8.90459e-06
0.000974572
0.00239352
0.00062394
1.57969e-05
9.57524e-08
1.78341e-05
0.000165227
0.00185034
0.00234952
0.00123807
7.54831e-05
1.02492e-05
4.96802e-09
9.35276e-09
3.17634e-08
2.9375e-07
1.50354e-06
1.92961e-06
8.6296e-06
1.01885e-08
5.9018e-07
8.28614e-07
1.44437e-05
9.48727e-08
9.5752e-08
1.1146e-07
4.11226e-05
9.07256e-05
3.90322e-06
5.40494e-06
7.3642e-06
2.16515e-08
2.98538e-08
1.1687e-08
1.99019e-09
1.7841e-08
5.33233e-07
1.40559e-07
1.75963e-07
6.42794e-06
1.04382e-05
5.50872e-06
1.07277e-07
9.51065e-08
4.48856e-07
1.60035e-06
1.75381e-06
3.87195e-06
1.03264e-05
1.11138e-05
3.3835e-08
4.49502e-08
5.75736e-08
2.73282e-09
4.16668e-08
7.82374e-06
1.40411e-05
8.47154e-06
3.86246e-06
7.10107e-06
1.30299e-06
1.18636e-07
1.37342e-07
2.16538e-06
8.43534e-06
9.52473e-06
1.0098e-05
7.14978e-06
6.38807e-06
3.45226e-08
1.41363e-07
5.46469e-08
3.04407e-08
5.21193e-06
1.74052e-05
1.69464e-05
1.50764e-05
2.31574e-06
1.85195e-06
1.751e-06
1.76304e-06
1.38805e-07
8.73291e-07
5.49479e-06
1.04455e-05
1.04089e-05
8.08987e-08
1.13363e-07
9.41306e-06
4.55369e-06
9.28933e-08
5.46272e-06
1.82291e-05
1.66103e-05
1.1092e-05
1.58981e-05
1.58472e-05
7.10975e-06
1.50799e-05
1.73103e-05
1.10706e-05
3.87975e-07
5.21781e-07
2.9849e-06
8.82762e-06
1.3924e-07
7.88421e-08
4.32755e-05
3.62494e-05
1.85978e-05
2.78357e-05
2.37369e-05
5.19497e-06
5.4649e-06
2.26717e-05
2.63364e-05
2.12423e-05
2.17488e-05
1.82449e-05
2.30368e-06
2.86528e-07
5.3149e-07
8.13782e-06
1.57977e-05
2.35593e-06
1.04413e-07
4.33514e-05
3.25717e-05
3.56414e-05
2.98085e-05
4.35944e-06
1.05809e-06
8.29163e-06
2.39882e-05
2.42174e-05
9.7789e-06
7.75858e-06
6.08453e-06
6.01734e-06
7.62993e-06
1.58546e-05
3.93899e-05
3.51671e-05
1.59173e-05
1.93268e-07
3.52794e-05
7.78161e-07
1.35769e-06
8.8903e-06
1.92181e-06
1.11628e-06
5.48672e-06
3.92701e-05
4.7143e-05
2.62219e-05
1.66427e-05
2.26349e-05
2.8428e-05
3.25294e-05
3.93899e-05
3.93899e-05
3.93901e-05
2.82814e-05
7.55543e-08
1.46473e-06
1.11971e-06
4.92121e-07
4.91993e-07
4.92073e-07
7.13031e-07
3.89249e-06
2.7906e-05
4.71949e-05
4.7143e-05
4.71949e-05
4.7143e-05
3.59055e-05
8.77774e-06
2.06704e-05
3.93898e-05
3.93903e-05
1.90678e-05
7.55543e-08
4.10222e-07
1.85316e-06
1.74711e-06
7.86903e-07
1.38219e-06
1.70223e-06
2.39633e-06
2.02726e-06
1.99835e-06
2.06067e-05
2.82798e-05
2.12232e-05
5.02205e-06
5.49354e-09
5.82796e-09
9.58442e-06
3.09162e-05
2.08212e-06
7.55543e-08
3.94109e-07
1.0544e-07
2.87872e-08
5.30027e-07
1.95452e-06
2.13891e-06
2.14602e-06
1.55292e-06
1.5752e-07
1.09111e-09
1.09254e-09
1.03727e-06
1.13524e-06
6.71072e-07
1.31418e-07
2.96118e-08
5.15965e-06
1.21263e-06
7.55543e-08
2.42928e-07
6.91452e-08
2.93676e-08
3.45099e-08
8.69878e-08
2.60692e-07
3.78087e-07
2.37242e-07
6.74445e-08
2.04531e-08
1.09447e-09
1.09863e-09
7.98133e-07
1.33236e-06
8.45449e-07
6.25988e-08
5.79499e-07
9.0078e-07
7.86345e-08
7.07108e-08
2.30052e-08
1.05246e-08
6.607e-09
4.47189e-09
1.58282e-09
1.1816e-09
1.1745e-09
1.19437e-09
1.23927e-09
1.17867e-09
1.17228e-09
1.43463e-09
1.48263e-07
1.27836e-07
2.14929e-07
3.42415e-07
8.61644e-08
1.36557e-07
1.12768e-08
6.72579e-09
3.65224e-09
3.75557e-09
3.60118e-09
3.54753e-09
3.4165e-09
3.58488e-09
3.98541e-09
5.10601e-09
6.87624e-09
1.24579e-08
1.32087e-08
3.79169e-08
1.90426e-07
4.91139e-07
1.81294e-07
3.89773e-09
1.92667e-07
1.45044e-09
1.72664e-09
2.03734e-09
2.39013e-09
2.59119e-09
2.78415e-09
3.19868e-09
4.76956e-09
6.1297e-09
1.01029e-08
1.81832e-08
4.5886e-08
1.05222e-07
1.76977e-07
1.89455e-07
1.43728e-07
4.91608e-08
2.31816e-09
1.92601e-07
4.91055e-10
6.05391e-10
8.07138e-10
1.06435e-09
1.43238e-09
1.93271e-09
2.59269e-09
3.45749e-09
5.27535e-09
1.36638e-08
3.25775e-08
4.78477e-08
6.34687e-08
8.11368e-08
8.25483e-08
6.23728e-08
1.99341e-08
2.29777e-09
1.68937e-07
1.69233e-10
2.22496e-10
3.00054e-10
4.04673e-10
5.44003e-10
7.60557e-10
1.11642e-09
1.88487e-09
3.09715e-09
4.77933e-09
7.63228e-09
1.05918e-08
9.86112e-09
1.07489e-08
2.10894e-08
3.04655e-08
1.23026e-08
2.28789e-09
1.22583e-07
7.1716e-11
9.37887e-11
1.28438e-10
1.75416e-10
2.51473e-10
3.59264e-10
5.15153e-10
7.94266e-10
1.26297e-09
1.94958e-09
3.03008e-09
4.33712e-09
5.80146e-09
1.04189e-08
1.71134e-08
1.2594e-08
5.55943e-09
2.59626e-09
1.24283e-07
2.70053e-11
3.9338e-11
5.73994e-11
8.47851e-11
1.28092e-10
2.02804e-10
3.3816e-10
5.60789e-10
1.00258e-09
1.84762e-09
3.49226e-09
5.50119e-09
1.07573e-08
1.87465e-08
2.63648e-08
1.96871e-08
5.87839e-09
1.67876e-08
1.1408e-07
1.10089e-11
1.57622e-11
2.37804e-11
3.6703e-11
5.95239e-11
1.03818e-10
2.00482e-10
3.81312e-10
7.69886e-10
1.5974e-09
3.37122e-09
6.7101e-09
1.45223e-08
3.24821e-08
4.91597e-08
5.17585e-08
2.32456e-08
2.84228e-08
1.23647e-07
3.50088e-12
5.59943e-12
8.5476e-12
1.36041e-11
2.34833e-11
4.54852e-11
6.77986e-11
1.40082e-10
3.644e-10
1.07202e-09
2.87314e-09
6.9037e-09
1.4054e-08
3.2817e-08
5.25446e-08
5.25532e-08
2.51106e-08
6.30198e-08
1.26164e-07
1.1991e-12
1.70728e-12
2.57745e-12
4.20351e-12
7.05332e-12
8.09977e-12
1.1413e-11
2.87792e-11
9.005e-11
3.16593e-10
1.09185e-09
3.79536e-09
1.10254e-08
2.28062e-08
4.31513e-08
3.90268e-08
2.27332e-08
1.00622e-07
1.20977e-07
3.16205e-13
4.48924e-13
6.22379e-13
9.08496e-13
1.48893e-12
2.22524e-12
1.76283e-12
5.25043e-12
1.89221e-11
6.9332e-11
2.61858e-10
1.22089e-09
6.43205e-09
1.43138e-08
2.64663e-08
2.69624e-08
2.35477e-08
1.12678e-07
1.1549e-07
8.92186e-14
1.05125e-13
1.34852e-13
1.76248e-13
2.45751e-13
3.66352e-13
3.44807e-13
1.0905e-12
4.43497e-12
1.73184e-11
7.71658e-11
3.17154e-10
2.00685e-09
6.16688e-09
1.59719e-08
2.25729e-08
3.67352e-08
9.50425e-08
1.77788e-07
2.23149e-14
2.60998e-14
3.04914e-14
3.80134e-14
5.44083e-14
8.62284e-14
1.53332e-13
3.51689e-13
1.39672e-12
5.30243e-12
2.48656e-11
1.18327e-10
6.99429e-10
4.20202e-09
8.08781e-09
2.21186e-08
3.67907e-08
3.65172e-08
3.1887e-07
5.89822e-15
6.32618e-15
7.19355e-15
9.44008e-15
1.4767e-14
2.9122e-14
7.13232e-14
2.08183e-13
6.70796e-13
2.38481e-12
1.05939e-11
4.59915e-11
2.30355e-10
1.11126e-09
3.61214e-09
9.13841e-09
2.80705e-08
2.03797e-08
3.77948e-07
1.54151e-15
1.65813e-15
1.91592e-15
2.68213e-15
4.97407e-15
1.22826e-14
3.75425e-14
1.26369e-13
4.23571e-13
1.41393e-12
5.72624e-12
2.42689e-11
1.19545e-10
7.04658e-10
1.82554e-09
3.15871e-09
5.80905e-09
1.66157e-08
3.83928e-07
3.90197e-16
4.33126e-16
5.41265e-16
8.87458e-16
1.98973e-15
5.69311e-15
1.90838e-14
6.88073e-14
2.47348e-13
8.69848e-13
3.50769e-12
1.5173e-11
6.96058e-11
4.03955e-10
1.74292e-09
3.07751e-09
6.49963e-09
1.52978e-08
3.83941e-07
9.50438e-17
1.10369e-16
1.55757e-16
3.0984e-16
8.16027e-16
2.5624e-15
8.86721e-15
3.23102e-14
1.21062e-13
4.62763e-13
1.6363e-12
7.50826e-12
3.56237e-11
2.06033e-10
1.53887e-09
3.95368e-09
5.33992e-09
1.99553e-08
1.38697e-07
2.06826e-17
2.54975e-17
4.04855e-17
9.40787e-17
2.89038e-16
9.88444e-16
3.49884e-15
1.24752e-14
4.41324e-14
1.66759e-13
6.21997e-13
2.80243e-12
1.40952e-11
7.39757e-11
3.91934e-10
2.92612e-09
6.48321e-09
1.45983e-08
3.28655e-08
4.0484e-18
4.73341e-18
8.38017e-18
2.32091e-17
8.53576e-17
3.3649e-16
1.31066e-15
5.03341e-15
1.95627e-14
7.84515e-14
3.28837e-13
1.33814e-12
6.57187e-12
3.60254e-11
1.89228e-10
8.4717e-10
2.78637e-09
4.04836e-09
4.44078e-10
6.5742e-19
7.48054e-19
1.17951e-18
3.25054e-18
1.38623e-17
6.63293e-17
3.02679e-16
1.2899e-15
5.25214e-15
2.17727e-14
9.56014e-14
4.13959e-13
2.05864e-12
1.08096e-11
6.11888e-11
3.02396e-10
8.56675e-10
1.04593e-09
2.57254e-10
8.37598e-20
8.44763e-20
1.09606e-19
2.39655e-19
9.59251e-19
5.30024e-18
2.99554e-17
1.52697e-16
6.8961e-16
2.75882e-15
1.0442e-14
4.1088e-14
1.83932e-13
1.11755e-12
9.04912e-12
6.45513e-11
2.08043e-10
2.70617e-10
1.50454e-10
)
;

boundaryField
{
    leftWall
    {
        type            zeroGradient;
    }
    rightWall
    {
        type            zeroGradient;
    }
    lowerWall
    {
        type            zeroGradient;
    }
    atmosphere
    {
        type            inletOutlet;
        inletValue      uniform 0;
        value           nonuniform List<scalar> 
46
(
1.34832e-07
4.51466e-08
2.5812e-08
4.75682e-08
1.7931e-08
4.30008e-09
0
0
0
0
0
0
0
0
0
0
0
0
0
3.63497e-16
3.61901e-16
9.39596e-17
8.94855e-18
0
0
0
0
0
0
0
0
0
0
0
0
0
0
0
0
0
0
0
6.45513e-11
2.08043e-10
2.70617e-10
1.50454e-10
)
;
    }
    defaultFaces
    {
        type            empty;
    }
}


// ************************************************************************* //
