/*--------------------------------*- C++ -*----------------------------------*\
| =========                 |                                                 |
| \\      /  F ield         | OpenFOAM: The Open Source CFD Toolbox           |
|  \\    /   O peration     | Version:  2312                                  |
|   \\  /    A nd           | Website:  www.openfoam.com                      |
|    \\/     M anipulation  |                                                 |
\*---------------------------------------------------------------------------*/
FoamFile
{
    version     2.0;
    format      ascii;
    arch        "LSB;label=32;scalar=64";
    class       volScalarField;
    location    "4.7";
    object      alpha.galistan;
}
// * * * * * * * * * * * * * * * * * * * * * * * * * * * * * * * * * * * * * //

dimensions      [0 0 0 0 0 0 0];

internalField   nonuniform List<scalar> 
2268
(
1
1
1
1
1
1
1
1
1
1
1
1
1
1
1
1
1
1
1
1
0.999986
0.999954
0.999954
1
1
1
1
1
1
1
1
1
1
1
1
1
1
1
1
1
1
1
1
0.999998
0.999968
0.999959
1
1
1
1
1
1
1
1
1
1
1
1
1
1
1
1
1
1
1
1
1
0.999997
0.999996
1
1
1
0.999996
0.999997
1
1
1
1
0.999999
1
1
1
1
1
1
1
1
1
1
1
1
1
0.961532
0.960881
0.960015
0.95975
0.962304
0.967942
0.975496
0.98341
0.990977
0.997061
0.999646
0.999794
0.99989
0.999849
0.999922
0.999998
0.999998
1
1
1
1
1
1
0.286873
0.288678
0.290858
0.293526
0.299787
0.313291
0.337641
0.374204
0.425232
0.496388
0.593869
0.698667
0.790261
0.872105
0.937154
0.980433
0.998352
0.99986
0.999856
1
1
1
1
1.12997e-17
4.1359e-27
-3.54668e-27
-7.10776e-12
7.05716e-18
7.3164e-22
6.07778e-22
-4.2631e-07
9.74359e-21
-1.02049e-10
-1.09222e-06
0.0173545
0.0622771
0.128313
0.223192
0.361302
0.541441
0.730742
0.882907
0.922184
0.930518
0.97799
0.998283
1.73002e-08
6.69083e-09
1.15026e-08
5.25554e-12
1.97765e-08
1.24236e-05
7.06898e-06
1.63657e-05
1.92002e-05
1.85578e-05
2.05406e-05
2.41579e-05
8.57998e-05
9.14823e-05
2.21506e-21
5.92667e-21
0.0140189
0.0779159
0.202371
0.412175
0.616183
0.738541
0.834346
0.957955
0.962735
0.960648
0.958724
0.95726
0.95727
0.959256
0.960906
0.961041
0.961003
0.961259
0.964881
0.964905
0.964904
0.964905
0.964904
0.964905
0.963236
0.963102
0.948237
0.965637
0.966784
0.96667
0.964669
0.963653
0.964219
0.965392
0.965539
0.96544
0.945408
0.928978
0.907741
0.89237
0.882369
0.873007
0.87137
0.876186
0.870825
0.78415
0.80242
0.829925
0.828615
0.8114
0.769471
0.745745
0.72522
0.6702
0.582892
0.536128
0.517187
0.458202
0.410887
0.357266
0.312192
0.284887
0.272586
0.285266
0.43987
0.35475
0.27101
0.222061
0.206463
0.234315
0.258655
0.272624
0.265256
0.23383
0.183587
0.106314
0.0755009
0.0293569
0.00128974
0.000197397
0.000195208
0.000197397
0.000195264
6.7647e-05
6.69589e-05
6.74897e-05
6.67074e-05
6.72068e-05
6.67118e-05
0.0124834
0.0051366
0.00617427
0.00921286
0.00628201
1.19618e-05
1.22796e-05
1.22591e-05
8.2574e-05
0.000858966
0.00377235
0.00313222
0.000880549
6.75339e-05
6.79325e-05
6.73622e-05
0.000238806
0.000279236
0.00106674
9.75744e-05
0.00515637
0.0106452
0.0123286
0.0102201
0.00168932
1.22464e-05
1.27043e-05
1.29993e-05
0.00274532
0.00881012
0.00859689
0.00149879
7.25925e-05
0.000165406
0.000270088
0.000920671
0.000499762
0.000211749
9.71322e-05
0.00340922
0.00712154
0.0193497
0.0167326
0.00600204
0.000315708
1.29339e-05
1.35974e-05
0.00278875
0.0125443
0.0126156
0.00327449
0.000156825
0.000511889
0.000556714
0.00111035
0.00116416
0.000340533
0.000216145
0.000223791
0.0110725
0.0223305
0.0223302
0.0212485
0.00449722
0.000450759
1.39765e-05
0.00167799
0.0122263
0.0106128
0.00438673
2.92365e-05
6.82532e-09
2.9814e-08
1.05065e-05
4.70344e-05
6.31814e-05
7.59745e-05
6.96245e-05
5.16707e-05
4.08273e-05
4.39989e-05
5.25854e-05
4.2878e-05
5.93417e-06
7.93662e-16
-4.542e-10
-1.42273e-09
1.86278e-10
2.98283e-08
0.000851831
0.0147563
0.0394597
0.0573972
0.000438348
0.00010314
0.000168732
0.000630246
0.000932728
0.000941416
0.000470646
7.08268e-05
2.59324e-05
2.54027e-05
1.88934e-05
4.16697e-06
7.83209e-09
7.06244e-09
6.97026e-09
6.03744e-10
7.93751e-06
0.000104707
0.00014112
2.37823e-06
-1.85215e-07
-6.1562e-06
0.00152047
0.000588054
0.000523526
0.00186498
0.00240256
0.00240254
0.00222824
0.000143311
7.79434e-05
0.000362444
0.000767854
0.000810296
0.000706581
0.000590195
0.000594735
0.00105602
0.00209188
0.00358686
0.00489303
0.00354694
0.00285657
0.003787
0.00440353
0.00363444
0.000588168
0.00111158
0.00233699
0.00240139
0.00162557
0.00025475
0.000115042
0.000445439
0.00189206
0.00189135
0.00172477
0.000917482
0.00218757
0.00464345
0.00463821
0.0046319
0.00490314
0.00558927
0.00558812
0.00558771
0.00538375
0.00247565
0.000468536
0.000445974
0.00174908
0.00156934
0.000636197
6.9883e-05
0.000127557
0.000892592
0.000890084
0.000767991
0.000165472
0.000139173
9.85125e-05
9.68683e-05
0.000162492
0.000232848
0.00034559
0.00108107
0.00189607
0.00412072
0.00518098
0.00287344
0.000501764
0.000493204
0.000293585
0.000712038
0.000230217
3.72636e-05
3.72631e-05
6.21927e-05
0.000405997
0.000463443
0.000162301
9.90063e-05
4.10864e-06
8.42272e-06
1.56983e-05
1.99446e-05
3.57826e-05
5.68691e-05
7.1303e-05
7.80951e-05
0.000831093
0.00244256
0.0030113
0.00124578
0.00105316
0.000134987
0.000129953
3.72584e-05
3.72498e-05
3.72637e-05
3.72631e-05
3.81123e-05
6.10077e-05
5.62218e-05
6.9241e-06
1.94061e-09
4.66986e-09
1.94156e-09
6.00283e-07
8.39494e-05
0.000131212
0.000115219
1.24457e-05
1.23303e-05
0.000250303
0.00377007
0.00384087
0.00361884
9.20358e-05
5.84932e-05
3.7266e-05
3.88867e-05
6.75978e-05
0.000330453
0.000162484
2.16786e-05
7.11736e-08
7.58885e-07
2.38165e-06
8.93193e-07
8.25573e-09
3.55414e-06
6.06765e-05
0.000131542
0.000131164
4.1144e-05
1.24498e-05
0.000466102
0.00322006
0.00384321
0.00384543
0.000212104
8.89445e-05
3.73489e-05
0.000230252
0.000906747
0.000969481
0.000700728
7.1167e-08
1.01549e-07
5.66502e-06
9.80233e-06
3.7483e-08
3.01266e-08
8.64177e-07
3.74645e-05
6.35522e-05
4.46762e-05
1.53109e-05
1.6549e-05
0.000327139
0.000870639
0.00166702
0.00143933
0.000500967
0.000323393
0.00011345
0.000551493
0.000969481
0.000969481
0.000969479
0.000441187
-4.15326e-08
7.05192e-06
1.01362e-05
3.56967e-06
2.22661e-06
3.62117e-06
3.77459e-06
5.46116e-06
1.17441e-05
2.66906e-05
3.88214e-05
1.24815e-05
7.47993e-07
5.65566e-08
6.90765e-09
0.000535143
0.000535137
0.00053335
0.000557792
0.000870641
0.000908286
0.000708706
0.000320143
3.69919e-12
1.08532e-06
4.10039e-06
2.78617e-06
6.07274e-07
4.52189e-08
4.5648e-08
4.52186e-08
8.74711e-08
1.32605e-07
6.81164e-07
5.01612e-07
7.05795e-08
1.10843e-07
3.61878e-07
0.000535138
0.000535138
0.000538844
0.000542609
0.000207285
0.000115911
3.04526e-05
4.25397e-05
9.88465e-06
-1.37735e-10
-8.22038e-10
1.74874e-07
1.66092e-07
1.01209e-07
4.95407e-08
2.12326e-07
3.92259e-07
1.70693e-07
3.1518e-08
2.9782e-08
7.88985e-08
6.19305e-07
1.26502e-06
0.000439987
0.000464349
0.000446701
0.000313952
0.000152342
1.47869e-05
1.82822e-07
1.33527e-07
1.64211e-06
5.97096e-08
3.02265e-08
1.18514e-07
1.55708e-07
4.50458e-08
1.33144e-08
6.77915e-07
9.69301e-07
9.70084e-07
1.49546e-07
2.4154e-07
1.16878e-06
1.50006e-06
1.34286e-06
1.14353e-05
1.30727e-05
1.87793e-05
3.43192e-06
2.89105e-05
1.11426e-05
6.24799e-07
2.42761e-08
2.28796e-07
2.40732e-08
6.08698e-08
8.28833e-08
5.59322e-08
1.34132e-08
1.30359e-08
2.97571e-07
7.6724e-07
1.83993e-07
5.2896e-08
1.26418e-06
1.50387e-06
1.50368e-06
6.52365e-07
7.89217e-10
3.3077e-08
5.98633e-07
9.83871e-07
2.42777e-06
3.07959e-06
6.48862e-07
5.43498e-08
3.51535e-08
3.59779e-08
6.43638e-08
2.40661e-08
1.01234e-08
2.57209e-08
4.50832e-08
1.65158e-08
1.14437e-09
1.12784e-09
4.1019e-08
8.65066e-07
1.45747e-06
9.03076e-07
7.77556e-08
7.90241e-10
2.20936e-08
4.63639e-07
5.61677e-07
6.04948e-07
6.3847e-07
4.00058e-07
1.64582e-07
5.0998e-08
3.13404e-08
1.36133e-08
6.51363e-09
1.00163e-08
1.13466e-08
4.79229e-09
1.75801e-09
3.24661e-09
8.0518e-09
5.63564e-09
1.04376e-07
4.20384e-07
1.51124e-07
6.0528e-08
1.0435e-09
5.79096e-09
1.60374e-07
2.04887e-07
1.43565e-07
1.11967e-07
1.06519e-07
1.07371e-07
4.05347e-08
1.70714e-08
6.02593e-09
4.44301e-09
5.84548e-09
5.70989e-09
3.24334e-09
1.38167e-09
8.19437e-09
1.71177e-08
8.50907e-09
1.61421e-09
1.0449e-07
3.16171e-07
9.51094e-08
1.21215e-09
1.95191e-09
2.62935e-08
3.46679e-08
3.315e-08
2.75431e-08
2.27483e-08
1.93877e-08
1.3092e-08
5.94979e-09
3.72874e-09
3.45208e-09
2.88563e-09
1.91628e-09
1.22839e-09
1.33753e-09
1.36635e-09
1.11159e-09
5.90498e-10
3.32849e-10
7.58281e-08
3.4055e-07
2.31056e-07
1.16475e-09
1.62141e-09
5.94263e-09
8.97895e-09
1.09281e-08
1.07827e-08
8.0191e-09
5.70583e-09
3.11252e-09
2.90817e-09
2.62789e-09
2.20964e-09
1.53033e-09
9.57407e-10
7.0921e-10
6.51692e-10
6.26699e-10
5.88941e-10
5.56555e-10
3.36317e-10
3.2582e-10
2.66102e-07
3.11475e-07
9.99831e-10
1.28167e-09
2.61485e-09
3.7697e-09
3.60327e-09
4.24739e-09
3.80246e-09
2.52017e-09
1.82909e-09
1.79752e-09
1.61138e-09
1.15743e-09
7.57651e-10
5.12173e-10
3.87972e-10
3.49939e-10
3.52479e-10
3.86151e-10
4.56555e-10
6.10978e-10
5.27568e-10
1.54366e-08
2.08508e-07
8.87547e-10
9.48307e-10
1.43968e-09
1.6402e-09
1.75593e-09
1.92081e-09
1.65923e-09
1.34509e-09
1.17725e-09
1.03642e-09
7.95425e-10
5.50723e-10
3.64506e-10
2.5623e-10
1.94854e-10
1.8223e-10
1.92245e-10
2.27017e-10
3.06161e-10
4.65664e-10
4.88773e-10
2.88605e-10
2.4175e-08
7.88385e-10
6.8331e-10
8.97297e-10
9.67481e-10
1.05349e-09
1.02439e-09
8.85931e-10
7.45302e-10
6.1845e-10
4.83313e-10
3.45703e-10
2.28333e-10
1.51494e-10
1.06329e-10
7.9937e-11
7.14033e-11
7.44006e-11
8.77981e-11
1.20914e-10
1.87951e-10
2.82468e-10
2.29429e-10
2.34426e-09
7.33513e-10
4.76958e-10
5.68408e-10
5.82688e-10
5.9358e-10
5.50709e-10
4.54632e-10
3.56998e-10
2.61663e-10
1.85878e-10
1.23913e-10
7.96869e-11
5.16842e-11
3.54208e-11
2.60592e-11
2.29339e-11
2.3895e-11
2.80196e-11
3.69452e-11
5.68107e-11
9.74108e-11
1.0902e-10
1.96763e-09
6.84229e-10
3.27731e-10
3.53671e-10
3.44476e-10
3.22013e-10
2.72094e-10
2.07945e-10
1.50386e-10
1.02775e-10
6.72909e-11
4.17154e-11
2.53173e-11
1.54365e-11
9.90565e-12
7.39665e-12
6.68627e-12
7.25454e-12
8.82187e-12
1.19387e-11
1.78165e-11
2.46309e-11
4.6701e-11
2.03984e-10
6.40167e-10
2.21058e-10
2.14276e-10
1.97334e-10
1.74679e-10
1.41808e-10
1.07379e-10
7.72846e-11
5.17497e-11
3.22985e-11
1.91756e-11
1.08681e-11
5.95912e-12
3.33308e-12
2.21435e-12
1.95147e-12
2.19478e-12
2.85108e-12
3.98137e-12
5.68583e-12
8.84977e-12
1.16311e-11
3.40909e-11
6.05292e-10
1.49272e-10
1.32699e-10
1.2444e-10
1.20272e-10
1.11269e-10
9.47769e-11
7.49617e-11
5.2177e-11
3.28664e-11
1.90573e-11
1.01505e-11
5.00551e-12
2.33027e-12
1.12965e-12
7.14896e-13
7.0147e-13
9.34179e-13
1.36508e-12
2.06188e-12
2.80078e-12
4.91426e-12
7.03767e-12
5.70977e-10
1.06299e-10
9.59701e-11
1.10347e-10
1.34181e-10
1.47358e-10
1.35916e-10
1.04387e-10
7.01487e-11
4.32821e-11
2.46237e-11
1.28411e-11
6.12222e-12
2.66812e-12
1.07951e-12
4.57614e-13
2.7068e-13
3.09465e-13
4.60887e-13
7.15362e-13
1.13069e-12
1.51741e-12
2.78329e-12
5.32247e-10
8.4979e-11
9.3998e-11
1.40612e-10
2.0152e-10
2.34925e-10
2.11858e-10
1.44455e-10
8.9431e-11
5.37576e-11
3.03079e-11
1.57735e-11
7.50982e-12
3.28067e-12
1.26102e-12
4.43013e-13
1.72292e-13
1.16736e-13
1.58087e-13
2.5978e-13
3.82665e-13
7.27664e-13
1.00552e-12
5.12014e-10
8.10913e-11
1.25848e-10
2.07838e-10
3.07768e-10
3.88895e-10
2.96785e-10
1.77879e-10
1.01424e-10
5.97538e-11
3.36603e-11
1.75585e-11
8.49024e-12
3.71618e-12
1.45658e-12
5.16407e-13
1.63315e-13
6.2077e-14
5.55525e-14
8.47666e-14
1.6408e-13
2.38016e-13
4.80268e-13
5.06178e-10
8.94679e-11
1.91749e-10
3.59535e-10
5.96501e-10
7.21121e-10
4.21358e-10
2.02422e-10
1.01535e-10
5.89643e-11
3.34189e-11
1.75729e-11
8.57238e-12
3.89034e-12
1.57767e-12
5.74716e-13
1.78687e-13
5.14692e-14
2.44156e-14
3.27654e-14
5.28061e-14
1.26983e-13
1.99701e-13
5.09221e-10
1.18247e-10
2.81105e-10
6.51961e-10
1.01285e-09
9.61145e-10
5.89408e-10
2.38401e-10
9.34639e-11
5.23813e-11
2.95738e-11
1.55462e-11
7.777e-12
3.63243e-12
1.57249e-12
5.97513e-13
1.93443e-13
5.23788e-14
1.56112e-14
1.31161e-14
2.81502e-14
5.3298e-14
1.20264e-13
5.15803e-10
1.49141e-10
4.45313e-10
1.03602e-09
1.26739e-09
1.0981e-09
6.61284e-10
2.38689e-10
9.43831e-11
4.58567e-11
2.43808e-11
1.24278e-11
6.27668e-12
3.07541e-12
1.3951e-12
5.63223e-13
1.93743e-13
5.45203e-14
1.35808e-14
6.28117e-15
1.06509e-14
3.40163e-14
6.6319e-14
5.34424e-10
1.91229e-10
6.8725e-10
1.2889e-09
1.37488e-09
1.16737e-09
6.0038e-10
2.53523e-10
9.75267e-11
3.92711e-11
1.87018e-11
9.17573e-12
4.68262e-12
2.3211e-12
1.09663e-12
4.74463e-13
1.77137e-13
5.42965e-14
1.31487e-14
3.90752e-15
5.71166e-15
1.31832e-14
4.41981e-14
5.53407e-10
2.48979e-10
9.05239e-10
1.37222e-09
1.37562e-09
1.09599e-09
5.51639e-10
2.85242e-10
9.41414e-11
3.18957e-11
1.33901e-11
6.34928e-12
3.2303e-12
1.58013e-12
7.55803e-13
3.50538e-13
1.44313e-13
4.85533e-14
1.217e-14
2.77079e-15
2.30823e-15
9.5222e-15
2.0639e-14
6.11907e-10
3.11744e-10
1.00537e-09
1.36641e-09
1.25906e-09
8.48272e-10
5.7086e-10
2.85465e-10
8.58805e-11
2.41209e-11
9.09759e-12
4.20262e-12
2.05092e-12
9.7325e-13
4.57914e-13
2.21562e-13
1.01681e-13
3.83205e-14
1.07667e-14
2.24667e-15
9.96833e-16
2.55336e-15
1.08086e-14
6.45168e-10
3.41064e-10
9.94657e-10
1.2983e-09
1.01933e-09
7.89772e-10
5.70055e-10
2.83641e-10
8.06296e-11
1.8254e-11
5.88425e-12
2.55844e-12
1.21359e-12
5.45486e-13
2.42674e-13
1.18061e-13
6.00262e-14
2.61991e-14
8.31255e-15
1.88126e-15
5.28893e-16
1.41413e-15
4.14814e-15
7.53866e-10
3.40219e-10
9.41362e-10
1.2088e-09
8.52248e-10
7.29379e-10
5.40382e-10
2.73716e-10
8.03136e-11
1.45294e-11
3.5748e-12
1.44273e-12
6.66861e-13
2.80614e-13
1.13967e-13
5.18589e-14
2.78525e-14
1.43038e-14
5.54135e-15
1.37703e-15
2.62777e-16
3.08483e-16
1.64684e-15
8.33892e-10
3.36303e-10
8.1119e-10
9.50738e-10
6.91481e-10
6.46443e-10
4.79832e-10
2.45599e-10
7.71039e-11
1.28267e-11
2.05192e-12
7.26154e-13
3.31053e-13
1.34035e-13
4.87843e-14
1.92679e-14
9.76362e-15
5.72947e-15
2.81235e-15
8.94798e-16
1.5106e-16
1.06907e-16
3.44933e-16
9.86639e-10
3.44217e-10
6.0373e-10
6.33473e-10
6.3864e-10
6.06126e-10
4.20825e-10
1.98232e-10
5.95283e-11
9.98931e-12
1.10286e-12
3.1375e-13
1.44382e-13
5.70797e-14
1.88255e-14
5.93607e-15
2.52577e-15
1.54713e-15
1.00281e-15
4.42438e-16
8.93835e-17
3.04827e-17
7.53642e-17
1.19083e-09
3.76247e-10
4.60808e-10
5.54036e-10
6.42356e-10
5.69543e-10
3.36839e-10
1.33065e-10
3.39806e-11
4.95149e-12
4.35021e-13
1.03004e-13
5.04246e-14
2.02875e-14
6.27286e-15
1.64601e-15
4.98222e-16
2.6424e-16
2.19312e-16
1.59669e-16
4.21528e-17
9.28284e-18
1.59321e-17
1.34785e-09
4.61806e-10
4.56363e-10
5.76332e-10
6.51158e-10
4.75495e-10
2.10844e-10
5.97004e-11
1.10605e-11
1.12507e-12
7.78535e-14
2.17133e-14
1.20414e-14
5.08475e-15
1.53747e-15
3.46068e-16
7.04562e-17
2.8053e-17
3.26583e-17
3.85207e-17
1.63384e-17
3.59433e-18
3.01678e-18
1.61851e-09
8.02236e-10
5.82525e-10
6.97676e-10
5.71672e-10
2.5991e-10
6.51989e-11
1.06036e-11
1.01694e-12
5.20826e-14
4.52023e-15
2.23943e-15
1.45841e-15
6.6474e-16
2.05787e-16
4.05174e-17
5.88026e-18
1.81138e-18
3.44653e-18
6.95633e-18
5.67795e-18
1.42492e-18
6.83985e-19
0.0163014
0.000134901
0.000134464
0.000307935
0.00136892
0.000935826
0.00118151
0.00186007
0.00114096
0.000485609
0.000842948
0.00394986
0.000469009
0.000563853
0.00409574
0.00744789
0.000863906
0.00100243
0.00112682
0.000629899
0.000393602
0.000281315
0.000158382
4.57597e-05
0.000271784
0.000145844
0.000158266
0.000432104
0.00336246
0.000953262
0.00101749
0.00127536
0.00117117
0.00157397
0.0014158
0.000801585
3.43291e-09
6.53171e-08
1.68393e-07
4.85055e-08
4.9989e-07
1.15297e-06
1.04713e-06
1.37314e-07
1.25759e-06
1.25973e-06
5.18995e-07
1.79854e-07
1.29882e-06
1.16139e-06
8.29669e-07
3.80603e-07
7.06498e-07
5.19132e-07
1.27725e-07
1.75345e-07
1.59889e-08
1.72836e-08
1.32463e-07
2.74563e-06
5.48214e-08
8.52635e-08
2.82954e-06
5.98564e-06
1.8622e-07
2.20956e-07
3.40901e-06
5.84184e-06
1.75488e-07
1.2054e-07
2.0549e-07
1.45512e-06
2.11229e-07
1.09712e-07
7.55782e-08
1.16487e-07
2.02688e-07
1.171e-07
7.72732e-08
5.14084e-08
9.52591e-08
1.17113e-07
9.71791e-08
2.80871e-08
1.35859e-08
4.35858e-08
5.31885e-08
1.85258e-08
2.62431e-09
2.58159e-09
4.76083e-09
6.00075e-09
4.22778e-10
5.37229e-10
4.60836e-10
5.96083e-10
5.4642e-11
5.20137e-11
7.08142e-11
8.63397e-11
1.0508e-11
1.37624e-11
1.51125e-11
1.92334e-11
3.60243e-12
4.13006e-12
5.79811e-12
6.81072e-12
1.51288e-12
2.00696e-12
2.34035e-12
3.139e-12
6.67098e-13
8.06412e-13
1.16292e-12
1.34792e-12
3.15251e-13
4.68735e-13
5.85661e-13
8.24843e-13
1.91738e-13
2.68e-13
4.13689e-13
5.22164e-13
1.2928e-13
2.04164e-13
2.80365e-13
4.19063e-13
8.36844e-14
1.25441e-13
2.11806e-13
2.73307e-13
5.7327e-14
8.35199e-14
1.22753e-13
2.03212e-13
2.3486e-14
4.03122e-14
7.15172e-14
9.94836e-14
1.15038e-14
1.87171e-14
3.09093e-14
5.56621e-14
3.85271e-15
7.00927e-15
1.18655e-14
1.94309e-14
1.03034e-15
1.69344e-15
3.21348e-15
6.08788e-15
1.88692e-16
3.37181e-16
5.95735e-16
1.17299e-15
3.57026e-17
6.20293e-17
1.19492e-16
2.24471e-16
6.22869e-18
9.78613e-18
1.54071e-17
2.66253e-17
9.32039e-19
1.13171e-18
1.54991e-18
2.17763e-18
0.00065958
0.000548987
0.000727024
0.00101273
0.0018025
0.000450613
0.000282381
0.000768721
0.0190591
0.0223293
0.0223307
0.0223302
0.00901275
0.00272075
0.000369573
0.00178071
0.00701465
0.00603737
0.00333709
0.00193636
0.000733121
0.00083558
0.00318196
0.00223702
0.000441916
0.000791242
0.0197521
0.0220586
0.0220828
0.0223308
0.0223303
0.0136692
0.00661974
0.0037046
0.00610758
0.00636253
0.00221591
0.00223188
0.00605899
0.00427701
0.00867266
0.0100142
0.00608843
0.00535244
0.0142195
0.0133747
0.00884164
0.00839781
0.01181
0.0134542
0.0152832
0.0153076
0.0138849
0.0124689
0.0072995
0.00230158
0.00221394
0.00904999
0.0100149
0.010015
0.0100156
0.00660327
0.00566096
0.00518075
0.0017859
0.00177395
0.000951242
0.000130565
0.000210315
0.00265527
0.00595701
0.00747148
0.00659283
0.00444779
0.00284556
0.00732372
0.00032553
0.00175475
0.00612853
0.00674676
0.0013891
0.00078157
0.00113647
0.00119032
0.000899006
0.000490947
7.11638e-05
7.11247e-05
7.0974e-05
0.000462726
0.0013127
0.00163935
0.00144197
0.00452111
0.00737443
4.34993e-05
4.18654e-05
4.17724e-05
0.000479284
0.000432453
0.000298675
4.77928e-05
4.75611e-05
0.000315438
0.000939767
0.000233578
7.72881e-05
7.09413e-05
7.25705e-05
0.000191602
0.000831511
0.00137943
0.00307069
0.00737448
0.000382118
0.00015827
0.000110587
0.000113846
0.000121515
0.000119416
0.000133159
4.78588e-05
0.000268265
0.00296261
0.00367158
0.0019953
0.00105526
0.000681869
0.000495733
0.000608461
0.00205872
0.00724814
0.00737451
0.0011184
0.000420406
0.000370973
0.000398687
0.000398878
0.000399118
0.000398738
0.000148302
0.000329107
0.00378322
0.00479166
0.00479179
0.00479221
0.00474244
0.00288399
0.00259321
0.00649045
0.00737457
0.00737455
0.000164827
7.02176e-05
8.74676e-05
0.000104264
0.000102027
0.000136707
0.000217568
0.000243589
0.000393606
0.000620985
0.00122991
0.00168663
0.00219624
0.00253534
0.00221318
0.00233265
0.00349044
0.0038894
0.0035989
5.11664e-08
5.03145e-08
7.52201e-08
1.13121e-07
3.07711e-24
8.70576e-10
-2.72267e-13
-2.5284e-11
-1.13786e-12
1.35923e-11
2.8875e-20
5.95362e-20
1.62413e-17
4.46793e-06
0.000108886
0.00024516
4.32054e-05
1.11169e-05
2.3326e-06
1.92252e-07
1.35451e-07
1.77576e-07
4.35704e-07
6.8951e-07
8.4229e-08
2.05978e-16
7.95268e-14
5.39453e-11
2.72516e-10
1.01436e-10
1.36241e-10
1.8429e-10
3.47315e-07
5.16588e-06
5.81813e-06
8.88099e-06
2.04559e-06
2.3366e-06
1.39256e-07
1.22573e-07
8.05501e-08
4.46476e-07
2.30107e-06
8.54408e-07
2.57342e-06
2.86763e-06
3.19225e-10
4.94293e-09
2.36287e-10
7.50988e-09
4.90732e-09
3.21907e-07
9.30842e-07
4.81016e-07
6.72023e-07
1.62474e-06
2.2271e-06
9.94487e-08
1.00643e-07
7.09771e-08
2.53631e-07
2.53619e-06
4.27914e-06
6.38333e-06
7.05428e-06
2.7674e-06
3.23914e-08
7.10446e-07
2.0281e-06
6.66535e-07
2.46148e-07
3.06329e-07
3.01776e-07
1.91216e-08
4.78534e-10
4.82168e-07
1.19445e-06
1.98589e-06
5.44724e-07
9.68657e-07
1.8301e-06
6.29973e-06
7.18947e-06
7.073e-06
7.05129e-06
3.42113e-06
3.34485e-06
4.70155e-06
3.49572e-06
5.40819e-08
5.41806e-09
1.63978e-08
2.36417e-08
1.14077e-08
4.48993e-08
5.98568e-06
5.9923e-06
3.78375e-06
2.08274e-06
2.29887e-06
7.3546e-06
7.19785e-06
3.47702e-06
2.85582e-06
3.34022e-06
2.36714e-06
1.81414e-07
6.30495e-07
5.41744e-09
5.46251e-09
1.03384e-07
1.39955e-07
2.82342e-07
2.06561e-08
5.99234e-06
5.35809e-06
3.07368e-06
7.3443e-07
4.36965e-06
7.32975e-06
2.83324e-06
6.7726e-09
6.74902e-09
6.7726e-09
9.52441e-08
1.13153e-07
1.11668e-07
3.40123e-07
4.27505e-07
9.29321e-07
6.18999e-07
2.60278e-06
5.34029e-08
5.07228e-06
5.66437e-07
1.4086e-07
1.45455e-07
3.3999e-06
6.79677e-06
6.8141e-09
6.77622e-09
7.26717e-09
1.4571e-08
1.06611e-06
1.83691e-06
1.83597e-06
1.55912e-06
1.98657e-06
2.39145e-06
3.36946e-06
3.51623e-06
1.57561e-07
9.86021e-08
1.23005e-07
2.94495e-07
1.51833e-07
1.15703e-06
3.12536e-06
5.17811e-07
7.98941e-09
2.29148e-08
7.0378e-08
9.38524e-07
1.7396e-06
2.39079e-06
2.39624e-06
2.34085e-06
1.68731e-06
2.92251e-06
3.51521e-06
1.42855e-06
4.02815e-08
1.10869e-07
9.19592e-07
9.20912e-07
3.97969e-07
1.37487e-06
7.22683e-07
8.21942e-07
3.71822e-07
1.82845e-07
1.77656e-07
1.76206e-07
3.76487e-07
1.21678e-06
1.19938e-06
3.53048e-08
2.01475e-08
3.51339e-06
2.49473e-06
3.14043e-08
1.09994e-08
5.9749e-09
4.30383e-07
7.02968e-07
7.63646e-07
6.03401e-07
6.2994e-07
6.29438e-07
4.14476e-07
1.87045e-07
1.99112e-07
3.81811e-08
7.03903e-09
1.22804e-07
3.60073e-08
1.64311e-08
9.98866e-07
1.41112e-06
5.35794e-09
5.49263e-09
5.7455e-09
4.58528e-09
4.64779e-08
1.80384e-07
1.69503e-07
5.17261e-08
1.72985e-08
1.58251e-07
3.5446e-07
3.53793e-07
1.08909e-07
1.69812e-08
1.86514e-10
9.86546e-11
2.39275e-08
2.40877e-08
4.47161e-07
3.76159e-09
3.95101e-09
4.73221e-09
4.42985e-09
2.00633e-09
1.10084e-09
9.85886e-10
9.76023e-10
9.78512e-10
9.80515e-10
1.18519e-09
1.07773e-09
2.36814e-08
3.11009e-08
9.01732e-09
1.34494e-09
3.71347e-08
3.24501e-08
1.76715e-07
3.52445e-09
2.77038e-09
2.57871e-09
1.99639e-09
1.52296e-09
1.19069e-09
9.84922e-10
9.6076e-10
9.87685e-10
9.86185e-10
9.96414e-10
1.04058e-09
1.09074e-09
2.36492e-09
4.39645e-09
1.03663e-09
2.0626e-08
3.56994e-08
7.39766e-08
7.10796e-10
7.0047e-10
6.38542e-10
5.98985e-10
5.48245e-10
5.55131e-10
5.8846e-10
7.16035e-10
8.60756e-10
1.10111e-09
1.56383e-09
2.22306e-09
2.93449e-09
4.85337e-09
5.34393e-09
2.34859e-09
4.81602e-09
3.14723e-08
5.03301e-08
1.09546e-10
1.10402e-10
1.1964e-10
1.394e-10
1.78248e-10
2.38427e-10
3.24353e-10
4.3527e-10
6.33658e-10
1.03425e-09
1.69071e-09
2.40902e-09
3.18609e-09
3.91338e-09
3.71221e-09
1.33667e-09
1.2044e-08
3.39923e-08
1.38617e-08
2.26131e-11
2.75759e-11
3.55766e-11
4.75677e-11
6.51067e-11
9.30435e-11
1.35925e-10
2.04073e-10
3.06105e-10
4.8482e-10
7.82142e-10
1.12289e-09
1.40539e-09
2.08699e-09
2.45436e-09
1.33841e-09
2.6914e-09
3.25133e-08
1.24309e-08
8.97765e-12
1.1739e-11
1.63348e-11
2.29457e-11
3.37466e-11
4.96634e-11
7.2859e-11
1.12648e-10
1.82156e-10
3.05549e-10
5.20235e-10
8.48581e-10
1.37287e-09
2.34259e-09
2.42287e-09
1.30335e-09
1.30128e-09
2.36191e-08
1.18113e-08
3.72802e-12
5.50771e-12
8.24705e-12
1.24637e-11
1.91346e-11
3.02134e-11
4.92989e-11
8.07136e-11
1.42697e-10
2.6437e-10
5.11917e-10
9.52803e-10
1.71352e-09
2.99111e-09
1.52433e-09
1.30125e-09
5.04516e-08
3.31484e-08
9.18321e-09
1.90873e-12
2.85471e-12
4.44593e-12
6.96929e-12
1.12185e-11
1.86939e-11
3.28534e-11
5.84014e-11
1.11578e-10
2.2576e-10
4.73938e-10
9.61553e-10
1.80064e-09
3.40374e-09
7.24368e-10
1.23904e-08
6.82782e-08
4.48298e-08
8.9393e-09
1.05495e-12
1.72191e-12
2.76366e-12
4.45228e-12
7.35089e-12
1.24648e-11
1.92936e-11
3.38536e-11
6.90463e-11
1.66774e-10
4.06033e-10
9.1862e-10
1.63264e-09
3.1034e-09
7.32899e-10
5.51232e-08
6.828e-08
4.01443e-08
8.47914e-09
7.62103e-13
1.24538e-12
2.06449e-12
3.43934e-12
5.72309e-12
9.02766e-12
1.46815e-11
2.47372e-11
4.41664e-11
9.29257e-11
2.38083e-10
6.39224e-10
1.46681e-09
2.64943e-09
2.3994e-09
5.4709e-08
6.72161e-08
2.41918e-08
6.97858e-09
5.71691e-13
9.91799e-13
1.7119e-12
2.95152e-12
5.1312e-12
8.65497e-12
1.45173e-11
2.42458e-11
4.03288e-11
6.94513e-11
1.41583e-10
3.84974e-10
1.29484e-09
2.64026e-09
5.91663e-09
3.40785e-08
3.40972e-08
1.22432e-08
6.48868e-09
4.34361e-13
7.74244e-13
1.41632e-12
2.58249e-12
4.72889e-12
8.49724e-12
1.50213e-11
2.57991e-11
4.234e-11
6.65021e-11
1.10408e-10
1.94143e-10
8.13847e-10
3.37122e-09
7.77664e-09
4.85758e-09
4.8518e-09
4.98102e-09
7.76997e-09
2.84579e-13
5.63558e-13
1.09602e-12
2.13703e-12
4.19607e-12
8.10327e-12
1.52699e-11
2.75413e-11
4.62659e-11
7.13625e-11
1.06922e-10
1.5113e-10
2.90904e-10
4.11421e-09
1.22719e-08
1.52195e-08
4.85326e-09
4.85178e-09
5.4142e-09
1.74993e-13
3.55965e-13
7.51675e-13
1.60978e-12
3.44261e-12
7.23086e-12
1.46808e-11
2.81259e-11
4.96728e-11
7.94028e-11
1.16847e-10
1.44625e-10
1.84075e-10
1.02722e-09
2.9765e-08
6.42828e-08
3.60703e-08
4.85334e-09
4.4195e-08
8.45871e-14
1.9412e-13
4.50416e-13
1.06861e-12
2.54476e-12
5.88606e-12
1.29855e-11
2.66455e-11
4.9916e-11
8.5623e-11
1.35602e-10
1.80216e-10
2.93774e-10
3.6079e-09
3.18272e-08
9.93966e-08
1.30876e-07
2.16144e-08
1.19168e-07
3.42278e-14
8.6477e-14
2.26324e-13
6.11228e-13
1.64455e-12
4.24195e-12
1.02747e-11
2.28558e-11
4.60756e-11
8.50481e-11
1.4757e-10
2.36239e-10
3.60302e-10
1.79874e-09
2.76814e-08
9.2859e-08
1.52787e-07
1.01052e-07
1.52052e-07
1.0779e-14
3.08412e-14
9.23619e-14
2.88764e-13
8.86452e-13
2.59865e-12
7.03921e-12
1.72537e-11
3.81627e-11
7.68845e-11
1.40401e-10
2.47757e-10
3.97393e-10
9.11697e-10
1.26162e-08
5.249e-08
1.19882e-07
1.47014e-07
1.47689e-07
2.57521e-15
8.28258e-15
2.83163e-14
1.00834e-13
3.63308e-13
1.24042e-12
3.86538e-12
1.07157e-11
2.61801e-11
5.83467e-11
1.17867e-10
2.28557e-10
4.03685e-10
5.84953e-10
5.85245e-10
1.4111e-08
7.34991e-08
1.44069e-07
7.3847e-08
4.3186e-16
1.4218e-15
5.79824e-15
2.51995e-14
1.10776e-13
4.54572e-13
1.67185e-12
5.41825e-12
1.54278e-11
3.87022e-11
8.73969e-11
1.77644e-10
3.51096e-10
6.1866e-10
9.33376e-10
1.66401e-09
1.61746e-08
3.91547e-08
3.17106e-09
4.60117e-17
1.4814e-16
6.18895e-16
3.11101e-15
1.72368e-14
9.08351e-14
4.21377e-13
1.69173e-12
5.81314e-12
1.73562e-11
4.59778e-11
1.07607e-10
2.39779e-10
4.90315e-10
8.61899e-10
1.28649e-09
2.44253e-09
3.32573e-09
1.07991e-09
3.10177e-18
7.6085e-18
2.79067e-17
1.51489e-16
1.00174e-15
6.76557e-15
4.17004e-14
2.20505e-13
9.82467e-13
3.59688e-12
1.10175e-11
3.03314e-11
7.738e-11
2.06762e-10
5.64342e-10
1.07383e-09
1.24412e-09
1.17395e-09
9.25401e-10
)
;

boundaryField
{
    leftWall
    {
        type            zeroGradient;
    }
    rightWall
    {
        type            zeroGradient;
    }
    lowerWall
    {
        type            zeroGradient;
    }
    atmosphere
    {
        type            inletOutlet;
        inletValue      uniform 0;
        value           nonuniform List<scalar> 
46
(
1.61851e-09
8.02236e-10
5.82525e-10
6.97676e-10
5.71672e-10
2.5991e-10
0
0
0
0
0
0
0
0
0
0
0
0
0
6.95633e-18
5.67795e-18
1.42492e-18
6.83985e-19
0
0
0
0
0
0
0
0
0
0
0
0
0
0
0
0
0
0
0
1.07383e-09
1.24412e-09
1.17395e-09
9.25401e-10
)
;
    }
    defaultFaces
    {
        type            empty;
    }
}


// ************************************************************************* //
