/*--------------------------------*- C++ -*----------------------------------*\
| =========                 |                                                 |
| \\      /  F ield         | OpenFOAM: The Open Source CFD Toolbox           |
|  \\    /   O peration     | Version:  2312                                  |
|   \\  /    A nd           | Website:  www.openfoam.com                      |
|    \\/     M anipulation  |                                                 |
\*---------------------------------------------------------------------------*/
FoamFile
{
    version     2.0;
    format      ascii;
    arch        "LSB;label=32;scalar=64";
    class       volScalarField;
    location    "4.7";
    object      p;
}
// * * * * * * * * * * * * * * * * * * * * * * * * * * * * * * * * * * * * * //

dimensions      [1 -1 -2 0 0 0 0];

internalField   nonuniform List<scalar> 
2268
(
4716.67
4718.04
4721.22
4727.42
4738.12
4754.88
4779.27
4812.83
4857.17
4913.73
4983.28
5065.64
5160.03
5265.89
5382.85
5510.17
5645.67
5784.92
5920.69
6044.88
6149.09
6225.33
6266.35
3919.6
3920.92
3924.07
3930.02
3940.4
3956.85
3980.9
4014.11
4058.11
4114.47
4184.04
4266.55
4361.08
4467.05
4584.2
4712.03
4848.66
4989.39
5126.95
5252.98
5358.93
5436.76
5478.97
3122.47
3123.73
3126.46
3131.75
3141.41
3157.17
3180.53
3212.97
3256.25
3312.16
3381.75
3464.62
3559.43
3665.63
3783.13
3911.91
4050.55
4194.49
4335.63
4465.24
4574.6
4655.68
4700.4
2324.88
2326.01
2328.19
2332.65
2341.41
2356.24
2378.41
2409.48
2451.52
2506.66
2576.31
2659.82
2755.1
2861.64
2979.58
3109.71
3251.47
3400.38
3546.9
3681.89
3796.35
3882.57
3931.15
1541.22
1542.35
1543.84
1546.45
1552.15
1563.23
1581.44
1608.42
1646.37
1698.36
1767.29
1852.01
1948
2055.03
2173.34
2304.99
2450.86
2607.1
2760.82
2903.02
3024.43
3118.11
3172.08
1021.15
1021.54
1021.39
1021.14
1021.33
1022.77
1027.01
1035.41
1049.44
1071.49
1104.42
1152.4
1214.94
1291.99
1386.61
1504.08
1648.41
1810.97
1977.1
2128.67
2258.88
2362.97
2424.15
856.41
856.138
855.2
853.786
851.449
847.838
843.044
837.754
832.606
828.157
825.205
827.222
838.31
858.944
891.495
940.177
1014.29
1117.69
1244.83
1389.3
1525.24
1626.33
1689.35
797.442
797.183
796.279
794.97
792.642
788.838
783.754
778.156
772.662
767.796
763.774
759.412
754.774
751.213
748.808
747.152
750.062
762.895
794.684
860.959
935.038
990.578
1025.36
2983.38
2971.22
2944.98
2912.42
2884.62
2864.53
2851.46
2832.72
2791.83
2720.49
2631.53
2540.93
2452.38
2378.64
2324.59
2292.55
2280.73
2279.04
2278.75
2224.57
2202.33
2174.16
2141.96
2116.13
2097.06
2085.64
2068.4
2027.75
1954.41
1869.87
1784.33
1701.97
1635.22
1582.48
1553.75
1544.5
1543.53
1545.48
1534.36
1495.74
1452.59
1419.41
1401.72
1399.64
1402.73
1397.13
1376.84
1331.57
1271.24
1199.21
1143.49
1097.34
1065.96
1063.07
1066.74
1069.24
1069.03
1041.24
1019.86
992.257
976.282
970.761
974.775
981.747
982.775
987.672
983.889
959.77
923.155
902.068
891.672
889.943
899.874
912.323
919.231
917.91
830.912
836.779
838.188
838.375
838.142
833.858
828.978
827.441
834.083
840.123
838.311
833.712
830.388
834.313
840.03
847.414
857.959
864.648
867.76
778.87
780.73
781.084
779.579
779.153
776.151
769.187
766.398
769.227
773.506
774.408
775.079
777.295
785.523
791.294
791.903
800.916
807.011
812.36
724.004
723.594
722.923
720.261
719.497
717.606
711.219
704.838
703.791
703.478
707.375
714.043
718.798
731.27
737.833
737.806
742.869
747.076
752.61
667.169
666.377
664.812
662.552
660.564
658.363
653.007
645.222
639.487
633.267
638.012
648.733
658.805
672.226
680.37
681.736
684.209
686.114
691.011
705.532
704.984
704.034
702.753
700.239
695.984
690.499
684.585
678.458
672.741
667.986
663.627
659.856
656.744
654.274
651.706
648
642.212
635.235
629.886
626.591
627.38
619.517
583.171
581.313
580.128
578.907
576.256
571.165
564.694
558.174
551.245
544.27
538.017
533.063
530.196
527.951
525.756
523.804
521.508
517.432
511.322
503.687
495.214
485.083
474.036
476.639
474.844
472.316
468.073
463.564
456.313
448.354
439.72
429.762
418.926
411.495
407.082
404.422
402.101
399.721
398.169
396.379
393.397
388.854
383.369
376.746
367.604
356.204
400.433
398.235
393.087
386.079
378.323
369.287
359.741
349.812
339.058
328.096
318.72
312.075
306.857
301.853
297.197
293.829
290.954
287.418
283.76
279.092
272.918
266.052
260.075
342.361
338.877
332.355
325.036
315.795
305.374
294.634
282.898
269.917
258.254
248.518
240.75
234.063
227.836
222.242
217.5
213.381
209.074
205.12
201.145
196.801
192.737
190.539
286.339
282.179
276.255
268.499
258.48
246.426
233.265
218.479
202.934
189.127
177.815
169.186
162.656
157.219
152.564
148.558
144.625
140.423
135.925
132.092
129.863
127.963
125.934
231.89
228.016
221.872
212.858
201.038
187.019
170.637
152.223
133.761
117.439
104.504
94.863
88.4325
83.1285
79.1401
76.1378
73.3963
70.4174
66.8944
63.0727
60.7435
59.2614
58.7471
179.175
175.321
168.591
158.45
144.854
127.451
105.775
81.6326
58.8545
41.9858
31.0982
24.0394
20.1585
18.4953
18.1434
17.9993
17.6923
17.3487
16.5242
14.7771
13.7644
13.4428
13.3676
128.354
124.223
116.889
105.369
88.9143
66.8945
41.5266
20.0715
8.10419
3.72311
1.60704
0.093391
-0.59533
-1.024
-1.11532
-1.12258
-1.09884
-0.989957
-0.848566
-0.607085
-0.274483
0.163226
-0.0957094
80.4445
75.493
67.2606
53.5507
36.9025
19.9758
6.12073
0.47544
-0.251052
-0.350149
-0.842336
-1.29699
-1.42412
-1.45547
-1.47712
-1.5152
-1.56058
-1.57765
-1.58038
-1.60687
-1.62785
-1.63301
-1.62512
37.163
32.2619
23.9939
13.8486
5.31712
1.85974
0.540943
-0.459246
-0.686343
-0.988486
-1.36649
-1.54162
-1.62336
-1.65421
-1.69168
-1.72731
-1.74622
-1.75081
-1.74122
-1.731
-1.73045
-1.73452
-1.72987
8.67178
4.4988
0.830885
-0.307168
-0.508592
-0.663282
-1.17918
-1.42586
-1.47236
-1.65776
-1.73902
-1.77049
-1.79462
-1.81996
-1.838
-1.8514
-1.85895
-1.86041
-1.85623
-1.85009
-1.84613
-1.84457
-1.8402
-1.85024
-1.85427
-1.82745
-1.80246
-1.82853
-1.92106
-2.02701
-1.99596
-1.95942
-1.95474
-1.949
-1.94334
-1.94586
-1.9494
-1.95818
-1.96672
-1.97181
-1.97386
-1.97269
-1.96972
-1.96703
-1.96566
-1.96387
-2.42621
-2.41743
-2.37864
-2.32917
-2.2907
-2.26678
-2.24897
-2.20469
-2.15084
-2.12605
-2.11002
-2.1022
-2.10046
-2.10222
-2.10255
-2.10429
-2.10563
-2.10545
-2.10332
-2.10005
-2.09746
-2.09547
-2.09335
-2.52777
-2.52544
-2.50238
-2.46527
-2.43292
-2.40116
-2.37584
-2.34319
-2.31004
-2.28356
-2.2653
-2.25421
-2.24736
-2.24273
-2.23912
-2.23765
-2.237
-2.2356
-2.23325
-2.23091
-2.22901
-2.22709
-2.2246
-2.60668
-2.59886
-2.59191
-2.57313
-2.55125
-2.52739
-2.50336
-2.47771
-2.45135
-2.42852
-2.41022
-2.39664
-2.38666
-2.37936
-2.37409
-2.37062
-2.36829
-2.36607
-2.36361
-2.36142
-2.35963
-2.3579
-2.35573
-2.72264
-2.7163
-2.70253
-2.68614
-2.66797
-2.64736
-2.6261
-2.60378
-2.58252
-2.56306
-2.54624
-2.53264
-2.52202
-2.51386
-2.50768
-2.50308
-2.49963
-2.49675
-2.49408
-2.49175
-2.48992
-2.48845
-2.48763
-2.82159
-2.81757
-2.80877
-2.79639
-2.78148
-2.76394
-2.7458
-2.72709
-2.70921
-2.6925
-2.67765
-2.66507
-2.65475
-2.64647
-2.6399
-2.63475
-2.6307
-2.62737
-2.62453
-2.62216
-2.62036
-2.61919
-2.61852
-2.92604
-2.92279
-2.91618
-2.90648
-2.89433
-2.8801
-2.86491
-2.84922
-2.83398
-2.81961
-2.8066
-2.79523
-2.78557
-2.77754
-2.77097
-2.76561
-2.76127
-2.7577
-2.75474
-2.75235
-2.75058
-2.74947
-2.74862
-3.03397
-3.03129
-3.02595
-3.0181
-3.0081
-2.99644
-2.98378
-2.97063
-2.95768
-2.94533
-2.93396
-2.92379
-2.91493
-2.90736
-2.901
-2.89566
-2.89124
-2.88757
-2.88455
-2.88213
-2.88032
-2.87912
-2.87817
-3.14446
-3.14223
-3.1378
-3.13131
-3.12301
-3.11332
-3.10275
-3.09173
-3.08073
-3.07013
-3.06021
-3.05119
-3.04315
-3.03614
-3.0301
-3.02494
-3.02058
-3.01692
-3.01389
-3.01144
-3.00956
-3.00821
-3.00718
-3.25698
-3.25511
-3.25139
-3.24595
-3.23902
-3.23089
-3.22204
-3.21276
-3.20342
-3.19431
-3.18569
-3.17771
-3.17049
-3.16406
-3.15842
-3.15353
-3.14932
-3.14574
-3.14275
-3.14029
-3.13835
-3.13688
-3.13573
-3.37117
-3.36959
-3.36643
-3.36184
-3.35604
-3.34915
-3.3417
-3.33387
-3.32592
-3.31811
-3.31062
-3.30359
-3.29714
-3.2913
-3.2861
-3.28152
-3.27752
-3.27407
-3.27115
-3.26871
-3.26674
-3.26519
-3.26396
-3.48675
-3.48541
-3.48272
-3.47882
-3.47388
-3.46812
-3.46178
-3.45514
-3.44837
-3.44166
-3.43516
-3.429
-3.42325
-3.41799
-3.41323
-3.40898
-3.40522
-3.40194
-3.39912
-3.39674
-3.39477
-3.39317
-3.39189
-3.60351
-3.60236
-3.60006
-3.59674
-3.59253
-3.58764
-3.58228
-3.57663
-3.57085
-3.56509
-3.55945
-3.55405
-3.54896
-3.54423
-3.5399
-3.53599
-3.53249
-3.52939
-3.5267
-3.5244
-3.52246
-3.52086
-3.51956
-3.72128
-3.72029
-3.71832
-3.71548
-3.71188
-3.70772
-3.70317
-3.69835
-3.69342
-3.68846
-3.68358
-3.67885
-3.67434
-3.67011
-3.6662
-3.66262
-3.65938
-3.65649
-3.65394
-3.65174
-3.64986
-3.64828
-3.64697
-3.83991
-3.83907
-3.83738
-3.83494
-3.83186
-3.8283
-3.82442
-3.82032
-3.8161
-3.81183
-3.8076
-3.80346
-3.79948
-3.79571
-3.79218
-3.78892
-3.78595
-3.78326
-3.78088
-3.77879
-3.77698
-3.77545
-3.77416
-3.95929
-3.95857
-3.95712
-3.95503
-3.95239
-3.94935
-3.94602
-3.94253
-3.93891
-3.93524
-3.93157
-3.92795
-3.92444
-3.92108
-3.91791
-3.91496
-3.91224
-3.90977
-3.90755
-3.90558
-3.90387
-3.90239
-3.90114
-4.07933
-4.07872
-4.07748
-4.07568
-4.07342
-4.07081
-4.06797
-4.06498
-4.06188
-4.05871
-4.05552
-4.05235
-4.04926
-4.04628
-4.04344
-4.04077
-4.0383
-4.03603
-4.03398
-4.03215
-4.03053
-4.02913
-4.02794
-4.19995
-4.19944
-4.19837
-4.19683
-4.19488
-4.19265
-4.19023
-4.18766
-4.185
-4.18226
-4.17948
-4.1767
-4.17398
-4.17133
-4.1688
-4.1664
-4.16416
-4.1621
-4.16021
-4.15852
-4.15702
-4.1557
-4.15457
-4.32108
-4.32066
-4.31976
-4.31843
-4.31676
-4.31484
-4.31278
-4.31058
-4.30827
-4.30587
-4.30346
-4.30102
-4.29861
-4.29627
-4.29402
-4.29188
-4.28986
-4.28799
-4.28627
-4.28472
-4.28333
-4.28211
-4.28105
-4.44267
-4.44233
-4.44157
-4.44045
-4.43902
-4.43739
-4.43559
-4.43368
-4.43166
-4.42957
-4.42744
-4.4253
-4.42319
-4.42112
-4.41913
-4.41722
-4.41542
-4.41373
-4.41218
-4.41077
-4.4095
-4.40838
-4.4074
-4.56466
-4.5644
-4.56377
-4.56283
-4.56163
-4.56021
-4.55862
-4.55695
-4.55516
-4.55331
-4.55144
-4.54956
-4.54771
-4.54589
-4.54414
-4.54245
-4.54085
-4.53935
-4.53796
-4.53669
-4.53554
-4.53453
-4.53363
-4.68697
-4.68678
-4.68628
-4.68552
-4.6845
-4.68326
-4.68187
-4.68034
-4.67874
-4.6771
-4.67545
-4.6738
-4.67218
-4.6706
-4.66906
-4.66759
-4.66618
-4.66486
-4.66363
-4.6625
-4.66147
-4.66057
-4.65976
-4.80952
-4.8094
-4.80902
-4.80841
-4.80754
-4.80641
-4.80516
-4.80378
-4.80235
-4.8009
-4.79946
-4.79803
-4.79662
-4.79525
-4.79392
-4.79264
-4.79142
-4.79027
-4.7892
-4.78821
-4.78731
-4.78651
-4.7858
-4.93221
-4.93216
-4.93188
-4.9314
-4.93064
-4.92964
-4.92849
-4.92725
-4.92597
-4.92471
-4.92345
-4.92223
-4.92102
-4.91985
-4.91872
-4.91763
-4.91659
-4.9156
-4.91468
-4.91383
-4.91306
-4.91237
-4.91175
-5.05496
-5.05495
-5.05477
-5.05438
-5.05372
-5.05285
-5.05181
-5.0507
-5.04958
-5.04849
-5.04743
-5.0464
-5.04539
-5.04441
-5.04347
-5.04256
-5.04169
-5.04087
-5.04009
-5.03938
-5.03873
-5.03815
-5.03763
-5.17768
-5.17768
-5.1776
-5.17731
-5.17672
-5.17599
-5.17507
-5.17411
-5.17316
-5.17227
-5.1714
-5.17055
-5.16973
-5.16894
-5.16817
-5.16743
-5.16673
-5.16607
-5.16544
-5.16486
-5.16434
-5.16387
-5.16345
-5.30038
-5.30037
-5.3003
-5.30007
-5.29962
-5.29901
-5.29824
-5.29746
-5.29671
-5.29599
-5.29535
-5.29469
-5.29405
-5.29344
-5.29284
-5.29227
-5.29173
-5.29122
-5.29074
-5.29029
-5.28989
-5.28953
-5.28921
-5.42307
-5.42303
-5.42295
-5.42274
-5.42238
-5.4219
-5.42133
-5.42077
-5.42024
-5.41974
-5.41927
-5.41881
-5.41836
-5.41792
-5.41749
-5.41709
-5.4167
-5.41634
-5.416
-5.41568
-5.4154
-5.41515
-5.41494
-5.54578
-5.54569
-5.54558
-5.54538
-5.54508
-5.54474
-5.54439
-5.54406
-5.54376
-5.54347
-5.5432
-5.54292
-5.54265
-5.54239
-5.54213
-5.54188
-5.54165
-5.54143
-5.54122
-5.54104
-5.54087
-5.54072
-5.54058
-5.66859
-5.66838
-5.66825
-5.66809
-5.66785
-5.66761
-5.66745
-5.66736
-5.66729
-5.66721
-5.66712
-5.66704
-5.66694
-5.66685
-5.66676
-5.66667
-5.66658
-5.6665
-5.66643
-5.66637
-5.66632
-5.66628
-5.66626
602.918
595.982
592.46
588.786
470.612
469.457
467.726
465.043
350.304
349.247
349.153
347.872
258.21
257.469
256.831
255.904
190.412
189.842
188.472
186.685
125.017
124.454
123.456
122.168
59.356
59.26
58.5362
57.5267
14.1097
13.9985
13.5916
12.8787
-0.386576
-0.311249
-0.50321
-0.86532
-1.62465
-1.62699
-1.62753
-1.6155
-1.73057
-1.73559
-1.73264
-1.72421
-1.83683
-1.83637
-1.83595
-1.8338
-1.96089
-1.95894
-1.95694
-1.95477
-2.08987
-2.08742
-2.08469
-2.08171
-2.22161
-2.21933
-2.21749
-2.21605
-2.35465
-2.35573
-2.35643
-2.35612
-2.48793
-2.49037
-2.49367
-2.49399
-2.61917
-2.62095
-2.6238
-2.62472
-2.74864
-2.74911
-2.75008
-2.75063
-2.87779
-2.87773
-2.87796
-2.87828
-3.00666
-3.0064
-3.0063
-3.00636
-3.13514
-3.13482
-3.13457
-3.13441
-3.26329
-3.26293
-3.26261
-3.26236
-3.39117
-3.39076
-3.39041
-3.39011
-3.51879
-3.51836
-3.51798
-3.51765
-3.64619
-3.64574
-3.64535
-3.645
-3.77338
-3.77292
-3.77252
-3.77216
-3.90037
-3.89992
-3.89952
-3.89916
-4.02719
-4.02675
-4.02635
-4.026
-4.15385
-4.15343
-4.15305
-4.1527
-4.28037
-4.27998
-4.27961
-4.27928
-4.40677
-4.4064
-4.40606
-4.40575
-4.53306
-4.53272
-4.5324
-4.53211
-4.65925
-4.65894
-4.65865
-4.65838
-4.78534
-4.78507
-4.78481
-4.78457
-4.91136
-4.91112
-4.9109
-4.91069
-5.0373
-5.0371
-5.03691
-5.03674
-5.16318
-5.16302
-5.16287
-5.16273
-5.28901
-5.28888
-5.28877
-5.28866
-5.41479
-5.4147
-5.41463
-5.41456
-5.54051
-5.54047
-5.54044
-5.54041
-5.66625
-5.66625
-5.66625
-5.66625
581.148
577.099
575.289
573.261
569.296
565.659
560.866
553.873
543.767
540.277
541.405
547.666
563.057
577.437
588.38
593.279
594.213
592.181
596.385
459.091
454.022
454.074
452.046
446.824
442.386
439.454
432.994
427.129
427.666
428.837
431.008
439.872
453.293
465.182
470.803
471.472
467.178
473.556
343.791
340.066
339.631
338.906
333.41
331.399
332.183
329.373
331.613
333.432
334.139
334.835
336.849
341.307
346.335
349.48
350.875
352.703
359.928
253.484
250.205
247.339
246.181
243.877
245.459
247.481
250.218
255.265
257.132
257.936
259.127
257.798
255.36
254.204
254.196
256.32
261.164
267.265
183.634
180.107
176.757
173.474
173.604
176.272
178.992
182.673
186.484
189.758
191.923
193.464
192.372
189.893
188.323
187.399
187.207
188.716
192.731
119.767
116.721
114.572
111.991
110.959
110.505
112.866
115.798
119.064
122.993
126.625
128.624
128.802
128.384
127.662
126.056
123.538
121.719
123.353
55.9121
54.0309
53.9339
53.4075
50.7143
47.4774
47.6198
49.8473
52.5483
55.9949
59.9579
62.9781
64.671
66.2471
67.1488
65.349
61.4675
58.4234
58.8776
11.821
10.7587
10.8356
11.3274
10.252
7.91042
7.06862
8.0277
9.34486
10.8607
13.2595
15.4933
17.2606
19.105
20.6782
19.8047
17.6331
16.2188
16.3565
-1.22033
-1.28162
-1.30074
-1.32701
-1.31389
-1.26489
-1.17114
-1.08673
-0.931212
-0.8542
-0.432201
-0.0290594
0.36172
0.594537
1.04682
1.54247
1.80632
1.97982
1.76301
-1.58303
-1.56248
-1.55999
-1.55362
-1.54562
-1.52887
-1.51782
-1.5293
-1.55298
-1.56631
-1.57791
-1.57846
-1.61951
-1.65749
-1.52426
-1.25866
-1.41811
-1.45286
-1.45492
-1.70842
-1.69414
-1.68595
-1.6784
-1.66858
-1.65721
-1.65078
-1.65769
-1.67638
-1.69237
-1.70969
-1.72294
-1.74689
-1.76281
-1.74439
-1.68274
-1.6372
-1.61987
-1.61661
-1.82786
-1.81942
-1.81213
-1.80542
-1.79762
-1.78931
-1.7865
-1.79259
-1.80544
-1.81873
-1.82929
-1.84072
-1.85788
-1.86987
-1.85568
-1.82464
-1.80036
-1.78883
-1.78133
-1.95075
-1.94673
-1.94198
-1.93598
-1.93061
-1.92594
-1.9294
-1.93585
-1.94198
-1.95093
-1.95927
-1.96714
-1.97576
-1.98455
-1.98222
-1.96489
-1.95025
-1.93978
-1.93516
-2.0782
-2.07748
-2.07492
-2.06966
-2.06733
-2.06912
-2.07773
-2.08555
-2.08806
-2.08964
-2.0953
-2.10212
-2.10592
-2.10787
-2.10637
-2.09841
-2.08785
-2.0809
-2.07728
-2.21487
-2.21602
-2.21352
-2.21026
-2.20916
-2.21484
-2.22522
-2.23123
-2.23347
-2.23252
-2.23569
-2.23947
-2.23851
-2.23464
-2.23252
-2.2272
-2.22168
-2.21575
-2.21444
-2.35628
-2.35908
-2.35629
-2.35373
-2.35452
-2.35929
-2.36433
-2.36524
-2.36639
-2.36705
-2.36631
-2.36438
-2.36246
-2.36066
-2.36027
-2.3582
-2.35366
-2.34969
-2.34934
-2.49336
-2.49349
-2.49255
-2.49184
-2.49582
-2.49775
-2.4959
-2.49573
-2.49602
-2.49537
-2.4935
-2.49109
-2.48996
-2.49091
-2.49182
-2.49147
-2.48768
-2.48531
-2.48314
-2.62291
-2.62069
-2.62046
-2.6226
-2.62854
-2.63012
-2.62667
-2.62764
-2.6289
-2.62776
-2.62587
-2.62406
-2.62336
-2.62426
-2.62569
-2.6262
-2.62304
-2.61956
-2.61579
-2.74998
-2.74857
-2.7493
-2.75092
-2.75567
-2.75917
-2.75659
-2.75747
-2.75948
-2.75945
-2.75815
-2.75625
-2.75485
-2.75443
-2.75578
-2.75673
-2.75484
-2.75091
-2.74773
-2.87866
-2.87808
-2.87847
-2.87979
-2.88237
-2.88583
-2.88588
-2.88614
-2.8871
-2.88772
-2.88696
-2.88511
-2.88324
-2.88235
-2.8828
-2.88313
-2.88227
-2.87942
-2.87739
-3.00652
-3.00647
-3.00707
-3.00829
-3.00996
-3.01236
-3.0132
-3.01352
-3.0139
-3.01425
-3.01413
-3.01319
-3.01172
-3.01043
-3.00984
-3.00927
-3.00826
-3.00641
-3.00549
-3.13424
-3.13417
-3.1346
-3.13549
-3.13672
-3.13825
-3.1392
-3.13965
-3.14002
-3.14041
-3.14063
-3.14033
-3.13948
-3.1384
-3.13719
-3.13594
-3.13472
-3.13326
-3.13266
-3.26201
-3.26179
-3.26202
-3.26258
-3.26338
-3.26432
-3.26513
-3.26572
-3.2662
-3.26661
-3.26686
-3.26678
-3.26631
-3.26548
-3.26424
-3.26286
-3.26156
-3.26035
-3.25986
-3.38968
-3.38934
-3.38937
-3.38968
-3.39019
-3.39081
-3.39145
-3.39203
-3.39255
-3.39301
-3.39334
-3.39342
-3.39314
-3.39241
-3.39133
-3.38994
-3.38858
-3.38759
-3.38713
-3.51718
-3.51677
-3.51665
-3.51677
-3.51707
-3.5175
-3.518
-3.51851
-3.51902
-3.51949
-3.51988
-3.52007
-3.51995
-3.51946
-3.51847
-3.51712
-3.51572
-3.51475
-3.51442
-3.64449
-3.64402
-3.6438
-3.64379
-3.64395
-3.64424
-3.64462
-3.64506
-3.64552
-3.64598
-3.64638
-3.64663
-3.64662
-3.64626
-3.64546
-3.64427
-3.64293
-3.64202
-3.6417
-3.77164
-3.77112
-3.77082
-3.77072
-3.77078
-3.77097
-3.77125
-3.77161
-3.77202
-3.77244
-3.77283
-3.77311
-3.77318
-3.77292
-3.77227
-3.77124
-3.77003
-3.76924
-3.76892
-3.89862
-3.89808
-3.89773
-3.89756
-3.89754
-3.89765
-3.89786
-3.89815
-3.8985
-3.89887
-3.89923
-3.89952
-3.89962
-3.89944
-3.89889
-3.89798
-3.89694
-3.8963
-3.89599
-4.02546
-4.0249
-4.02452
-4.02431
-4.02423
-4.02428
-4.02443
-4.02466
-4.02495
-4.02527
-4.02558
-4.02585
-4.02596
-4.0258
-4.02531
-4.02451
-4.02366
-4.02317
-4.02288
-4.15218
-4.15162
-4.15122
-4.15097
-4.15085
-4.15085
-4.15095
-4.15113
-4.15136
-4.15162
-4.15188
-4.15211
-4.15219
-4.15203
-4.15157
-4.15091
-4.15023
-4.14987
-4.1496
-4.27878
-4.27823
-4.27782
-4.27755
-4.27741
-4.27737
-4.27742
-4.27754
-4.27772
-4.27792
-4.27812
-4.27828
-4.27832
-4.27813
-4.27771
-4.27719
-4.2767
-4.27642
-4.27616
-4.40527
-4.40474
-4.40434
-4.40406
-4.40389
-4.40382
-4.40383
-4.40391
-4.40403
-4.40416
-4.40429
-4.40437
-4.40435
-4.40416
-4.40379
-4.4034
-4.40305
-4.40284
-4.4026
-4.53167
-4.53116
-4.53078
-4.5305
-4.53032
-4.53022
-4.5302
-4.53023
-4.53029
-4.53036
-4.53041
-4.53041
-4.53033
-4.53013
-4.52983
-4.52956
-4.52931
-4.52918
-4.52897
-4.65798
-4.65751
-4.65715
-4.65687
-4.65668
-4.65657
-4.65651
-4.65651
-4.65653
-4.65654
-4.65653
-4.65647
-4.65633
-4.6561
-4.65587
-4.6557
-4.65555
-4.65549
-4.65533
-4.78421
-4.78379
-4.78345
-4.78319
-4.783
-4.78287
-4.78279
-4.78276
-4.78274
-4.78272
-4.78268
-4.7826
-4.78246
-4.78223
-4.78202
-4.78191
-4.78182
-4.78181
-4.78169
-4.91037
-4.91
-4.9097
-4.90945
-4.90927
-4.90914
-4.90905
-4.90899
-4.90895
-4.90891
-4.90886
-4.90878
-4.90871
-4.90858
-4.90837
-4.90823
-4.90817
-4.90814
-4.90811
-5.03647
-5.03615
-5.03589
-5.03568
-5.03551
-5.03538
-5.03528
-5.03521
-5.03516
-5.03511
-5.03505
-5.035
-5.03497
-5.03495
-5.03481
-5.03466
-5.03456
-5.0345
-5.03456
-5.16251
-5.16226
-5.16204
-5.16186
-5.16171
-5.16159
-5.1615
-5.16142
-5.16136
-5.16131
-5.16125
-5.16121
-5.16119
-5.16122
-5.16123
-5.16113
-5.16101
-5.16092
-5.16102
-5.2885
-5.28831
-5.28815
-5.28802
-5.2879
-5.28779
-5.28771
-5.28763
-5.28756
-5.2875
-5.28745
-5.28741
-5.2874
-5.28743
-5.2875
-5.28754
-5.28748
-5.28738
-5.28747
-5.41445
-5.41433
-5.41423
-5.41414
-5.41406
-5.41398
-5.41391
-5.41385
-5.41378
-5.41371
-5.41365
-5.41361
-5.41359
-5.41361
-5.41368
-5.41382
-5.41386
-5.41379
-5.41382
-5.54036
-5.54032
-5.54028
-5.54024
-5.5402
-5.54017
-5.54012
-5.54007
-5.54001
-5.53994
-5.53987
-5.53981
-5.53977
-5.53977
-5.53983
-5.54001
-5.54008
-5.54006
-5.54005
-5.66626
-5.66629
-5.66632
-5.66635
-5.66637
-5.66638
-5.66637
-5.66634
-5.66629
-5.66623
-5.66615
-5.66607
-5.666
-5.66596
-5.66598
-5.66623
-5.6663
-5.66632
-5.66635
)
;

boundaryField
{
    leftWall
    {
        type            calculated;
        value           nonuniform List<scalar> 
50
(
4716.67
3919.6
3122.47
2324.88
1541.22
1021.15
856.41
797.442
705.532
583.171
476.639
400.433
342.361
286.339
231.89
179.175
128.354
80.4445
37.163
8.67178
-1.85024
-2.42621
-2.52777
-2.60668
-2.72264
-2.82159
-2.92604
-3.03397
-3.14446
-3.25698
-3.37117
-3.48675
-3.60351
-3.72128
-3.83991
-3.95929
-4.07933
-4.19995
-4.32108
-4.44267
-4.56466
-4.68697
-4.80952
-4.93221
-5.05496
-5.17768
-5.30038
-5.42307
-5.54578
-5.66859
)
;
    }
    rightWall
    {
        type            calculated;
        value           nonuniform List<scalar> 
50
(
2278.75
1545.48
1069.03
917.91
867.76
812.36
752.61
691.011
596.385
473.556
359.928
267.265
192.731
123.353
58.8776
16.3565
1.76301
-1.45492
-1.61661
-1.78133
-1.93516
-2.07728
-2.21444
-2.34934
-2.48314
-2.61579
-2.74773
-2.87739
-3.00549
-3.13266
-3.25986
-3.38713
-3.51442
-3.6417
-3.76892
-3.89599
-4.02288
-4.1496
-4.27616
-4.4026
-4.52897
-4.65533
-4.78169
-4.90811
-5.03456
-5.16102
-5.28747
-5.41382
-5.54005
-5.66635
)
;
    }
    lowerWall
    {
        type            calculated;
        value           nonuniform List<scalar> 
62
(
5114.82
5116.19
5119.37
5125.57
5136.27
5153.03
5177.42
5210.98
5255.32
5311.88
5381.43
5463.79
5558.18
5664.04
5781
5908.32
6043.82
6183.07
6318.84
6443.03
6547.24
6623.47
6664.48
6266.35
5478.97
4700.4
3931.15
3172.08
2424.15
1689.35
1025.36
677.384
658.089
654.6
650.835
2983.38
2224.57
1534.36
1041.24
830.912
778.87
724.004
667.169
3365.63
3355.18
3328
3294.71
3266.39
3246.38
3234.11
3215.99
3175.15
3103.8
3014.94
2925.67
2837.11
2763.36
2709.32
2677.25
2665.41
2663.08
2662.74
)
;
    }
    atmosphere
    {
        type            calculated;
        value           nonuniform List<scalar> 
46
(
-5.72995
-5.72956
-5.72956
-5.72954
-5.72932
-5.72914
-5.72904
-5.72905
-5.72907
-5.72909
-5.72909
-5.7291
-5.72909
-5.72909
-5.72908
-5.72907
-5.72906
-5.72905
-5.72904
-5.72904
-5.72904
-5.72904
-5.72904
-5.72905
-5.72906
-5.72909
-5.72913
-5.72918
-5.72927
-5.72936
-5.72943
-5.72948
-5.72952
-5.72953
-5.72953
-5.7295
-5.72945
-5.72937
-5.72928
-5.72918
-5.72909
-5.72904
-5.72952
-5.72945
-5.72943
-5.72941
)
;
    }
    defaultFaces
    {
        type            empty;
    }
}


// ************************************************************************* //
