/*--------------------------------*- C++ -*----------------------------------*\
| =========                 |                                                 |
| \\      /  F ield         | OpenFOAM: The Open Source CFD Toolbox           |
|  \\    /   O peration     | Version:  2312                                  |
|   \\  /    A nd           | Website:  www.openfoam.com                      |
|    \\/     M anipulation  |                                                 |
\*---------------------------------------------------------------------------*/
FoamFile
{
    version     2.0;
    format      ascii;
    arch        "LSB;label=32;scalar=64";
    class       surfaceScalarField;
    location    "4.7";
    object      phi;
}
// * * * * * * * * * * * * * * * * * * * * * * * * * * * * * * * * * * * * * //

dimensions      [0 3 -1 0 0 0 0];

oriented        oriented;

internalField   nonuniform List<scalar> 
4432
(
7.31874e-07
-7.31922e-07
1.01565e-06
-2.83814e-07
1.20485e-06
-1.89212e-07
1.33451e-06
-1.29661e-07
1.4215e-06
-8.69864e-08
1.47632e-06
-5.48094e-08
1.51969e-06
-4.33511e-08
1.58128e-06
-6.15867e-08
1.68715e-06
-1.05861e-07
1.84465e-06
-1.57498e-07
2.04276e-06
-1.98094e-07
2.25585e-06
-2.13083e-07
2.45577e-06
-1.99896e-07
2.61853e-06
-1.62735e-07
2.73161e-06
-1.13055e-07
2.78998e-06
-5.83321e-08
2.77385e-06
1.61858e-08
2.64173e-06
1.32176e-07
2.33112e-06
3.10673e-07
1.80582e-06
5.25354e-07
1.13815e-06
6.67721e-07
4.21725e-07
7.16481e-07
4.21715e-07
2.20299e-07
-9.52309e-07
4.87677e-07
-5.51252e-07
6.9278e-07
-3.94355e-07
8.40675e-07
-2.77576e-07
9.44699e-07
-1.91018e-07
1.01433e-06
-1.24432e-07
1.07556e-06
-1.04584e-07
1.16055e-06
-1.46562e-07
1.29292e-06
-2.38238e-07
1.47984e-06
-3.44406e-07
1.71044e-06
-4.28679e-07
1.95579e-06
-4.58404e-07
2.18575e-06
-4.29809e-07
2.37558e-06
-3.52497e-07
2.515e-06
-2.52372e-07
2.60143e-06
-1.4465e-07
2.62508e-06
-7.34013e-09
2.53287e-06
2.24552e-07
2.26017e-06
5.83556e-07
1.7653e-06
1.02043e-06
1.14037e-06
1.29287e-06
5.02905e-07
1.35417e-06
9.24924e-07
9.90829e-08
-1.05141e-06
3.48543e-07
-8.00724e-07
5.35524e-07
-5.81339e-07
6.59287e-07
-4.01334e-07
7.33001e-07
-2.64723e-07
7.72923e-07
-1.6434e-07
8.11853e-07
-1.43501e-07
8.81458e-07
-2.16154e-07
1.00564e-06
-3.62403e-07
1.19152e-06
-5.30255e-07
1.42929e-06
-6.66417e-07
1.6863e-06
-7.15369e-07
1.92935e-06
-6.728e-07
2.1325e-06
-5.55597e-07
2.29205e-06
-4.11862e-07
2.41407e-06
-2.66623e-07
2.48633e-06
-7.95511e-08
2.46441e-06
2.46519e-07
2.25344e-06
7.94572e-07
1.78578e-06
1.48814e-06
1.1881e-06
1.8906e-06
6.18662e-07
1.92367e-06
1.54352e-06
2.06845e-07
-1.25828e-06
4.85808e-07
-1.07971e-06
6.80142e-07
-7.75686e-07
7.66475e-07
-4.87673e-07
7.8351e-07
-2.81754e-07
7.73533e-07
-1.54349e-07
7.78275e-07
-1.48221e-07
8.1854e-07
-2.56389e-07
9.09191e-07
-4.53015e-07
1.05886e-06
-6.79875e-07
1.2697e-06
-8.77181e-07
1.50528e-06
-9.50877e-07
1.72816e-06
-8.95606e-07
1.91245e-06
-7.39803e-07
2.06596e-06
-5.65291e-07
2.21425e-06
-4.14845e-07
2.36118e-06
-2.26424e-07
2.44405e-06
1.63736e-07
2.32917e-06
9.09585e-07
1.88733e-06
1.93014e-06
1.29203e-06
2.48608e-06
7.69209e-07
2.44666e-06
2.31299e-06
4.3919e-07
-1.69745e-06
8.14331e-07
-1.45483e-06
1.07709e-06
-1.03843e-06
1.16825e-06
-5.7881e-07
1.15123e-06
-2.64717e-07
1.10473e-06
-1.07829e-07
1.08828e-06
-1.31758e-07
1.09921e-06
-2.67295e-07
1.12153e-06
-4.75324e-07
1.17597e-06
-7.34293e-07
1.3181e-06
-1.01931e-06
1.49084e-06
-1.1236e-06
1.64064e-06
-1.0454e-06
1.74815e-06
-8.47329e-07
1.83696e-06
-6.54127e-07
1.95361e-06
-5.31522e-07
2.14873e-06
-4.21565e-07
2.36294e-06
-5.04788e-08
2.38558e-06
8.86942e-07
1.99585e-06
2.31987e-06
1.36125e-06
3.12068e-06
8.83704e-07
2.92423e-06
3.1966e-06
6.9358e-07
-2.39099e-06
1.25952e-06
-2.02072e-06
1.60931e-06
-1.38815e-06
1.72765e-06
-6.97067e-07
1.74286e-06
-2.79813e-07
1.75765e-06
-1.2248e-07
1.83007e-06
-2.04009e-07
1.92465e-06
-3.61667e-07
2.00784e-06
-5.5828e-07
2.0713e-06
-7.97484e-07
2.08991e-06
-1.03762e-06
2.16997e-06
-1.20345e-06
2.19029e-06
-1.06556e-06
2.09296e-06
-7.49865e-07
1.89843e-06
-4.59501e-07
1.7403e-06
-3.73323e-07
1.8348e-06
-5.1602e-07
2.02079e-06
-2.36421e-07
2.24402e-06
6.63783e-07
2.0531e-06
2.51083e-06
1.42339e-06
3.75043e-06
8.37591e-07
3.51006e-06
4.03429e-06
7.21774e-07
-3.11267e-06
1.65086e-06
-2.94969e-06
2.24948e-06
-1.98663e-06
2.89509e-06
-1.3425e-06
3.8185e-06
-1.20299e-06
4.89149e-06
-1.19516e-06
5.63344e-06
-9.45584e-07
5.75593e-06
-4.83708e-07
5.15877e-06
3.93913e-08
3.82436e-06
5.37523e-07
1.75645e-06
1.03087e-06
7.35755e-07
-1.82203e-07
7.30992e-07
-1.06029e-06
1.12376e-06
-1.14217e-06
1.59849e-06
-9.3384e-07
1.83609e-06
-6.10557e-07
2.23178e-06
-9.11437e-07
2.39312e-06
-3.97573e-07
2.08962e-06
9.67396e-07
1.76081e-06
2.8397e-06
1.5204e-06
3.9909e-06
7.58629e-07
4.27193e-06
4.79294e-06
7.57063e-07
-3.86961e-06
1.82852e-06
-4.02103e-06
2.56361e-06
-2.72161e-06
3.04834e-06
-1.82709e-06
3.42881e-06
-1.5833e-06
3.88473e-06
-1.65088e-06
4.2327e-06
-1.29331e-06
4.4328e-06
-6.83532e-07
4.16081e-06
3.11702e-07
3.55452e-06
1.14413e-06
3.1823e-06
1.40344e-06
2.48e-06
5.20449e-07
1.67878e-06
-2.58712e-07
1.13879e-06
-6.01836e-07
3.84591e-07
-1.79316e-07
-1.28155e-06
1.05587e-06
-2.76354e-06
5.70768e-07
-2.38257e-06
-7.78434e-07
-9.00464e-07
-5.14639e-07
4.0996e-07
1.52934e-06
1.1772e-06
3.22372e-06
7.75534e-07
4.6736e-06
5.56857e-06
2.39456e-07
-2.3944e-07
2.61616e-06
-2.37669e-06
4.58084e-06
-1.96468e-06
5.48794e-06
-9.071e-07
5.91596e-06
-4.28013e-07
5.83703e-06
7.89363e-08
5.27021e-06
5.66823e-07
4.3272e-06
9.43009e-07
2.78401e-06
1.5432e-06
9.4763e-07
1.83638e-06
-2.82824e-07
1.23045e-06
-9.05032e-07
6.22211e-07
-1.36349e-06
4.58457e-07
-1.41873e-06
5.52375e-08
-1.33613e-06
-8.2609e-08
-1.07535e-06
-2.60792e-07
-7.51888e-07
-3.23474e-07
-3.51754e-07
-4.00148e-07
-3.51758e-07
1.69477e-06
-1.93415e-06
3.46561e-06
-4.14749e-06
5.13685e-06
-3.63589e-06
6.2307e-06
-2.00092e-06
6.74861e-06
-9.45905e-07
6.51262e-06
3.14957e-07
5.93503e-06
1.14442e-06
5.10643e-06
1.77162e-06
3.45543e-06
3.19422e-06
1.35654e-06
3.93528e-06
-1.19984e-07
2.70698e-06
-1.09506e-06
1.5973e-06
-1.66562e-06
1.02903e-06
-1.88796e-06
2.7756e-07
-2.08837e-06
1.17799e-07
-1.85597e-06
-4.93224e-07
-1.28845e-06
-8.91033e-07
-6.66538e-07
-1.0221e-06
-1.01834e-06
3.1188e-06
-5.05288e-06
4.04251e-06
-5.07113e-06
4.5632e-06
-4.15655e-06
5.62223e-06
-3.05993e-06
6.46522e-06
-1.7889e-06
6.57415e-06
2.06022e-07
6.26159e-06
1.45697e-06
6.06609e-06
1.9671e-06
5.53754e-06
3.72276e-06
4.09428e-06
5.37852e-06
2.10141e-06
4.69984e-06
-1.95403e-07
3.89411e-06
-1.24139e-06
2.07499e-06
-2.49425e-06
1.53041e-06
-3.49866e-06
1.12218e-06
-3.03045e-06
-9.61471e-07
-1.82272e-06
-2.09882e-06
-7.13915e-07
-2.13095e-06
-1.73226e-06
2.87886e-06
-7.93102e-06
3.81202e-06
-6.00372e-06
3.09232e-06
-3.4364e-06
3.72914e-06
-3.6964e-06
5.18019e-06
-3.23969e-06
6.60232e-06
-1.21591e-06
7.5364e-06
5.23016e-07
6.55834e-06
2.94523e-06
7.84371e-06
2.43743e-06
1.05708e-05
2.65141e-06
1.30504e-05
2.22017e-06
1.42254e-05
2.71898e-06
1.36174e-05
2.68281e-06
5.01029e-06
1.01372e-05
-3.25766e-06
9.38983e-06
-2.36988e-06
-1.84952e-06
1.41266e-06
-5.88163e-06
3.64913e-06
-4.36771e-06
1.91652e-06
-3.59878e-07
-7.57074e-06
4.3177e-07
-6.79505e-06
-9.24632e-07
-2.07981e-06
-5.08981e-07
-4.112e-06
7.96549e-07
-4.54523e-06
-2.82633e-07
-1.36785e-07
-1.02259e-06
1.2629e-06
-6.49582e-07
2.57216e-06
3.78455e-06
-1.99675e-06
1.17126e-05
-5.27669e-06
1.68861e-05
-2.95331e-06
1.89611e-05
6.44027e-07
1.58363e-05
5.80749e-06
9.56226e-06
1.64113e-05
5.09717e-06
1.38549e-05
4.52558e-06
-1.27796e-06
6.1986e-06
-7.55469e-06
6.05228e-06
-4.2214e-06
7.9689e-06
-3.16324e-06
-4.40639e-06
-2.25174e-06
-7.70573e-06
-3.76283e-07
-3.95459e-06
2.56702e-06
-7.05475e-06
4.81441e-06
-6.79222e-06
3.69905e-06
9.7889e-07
-8.60444e-07
5.82264e-06
-8.8462e-07
2.59645e-06
1.75036e-06
-4.63163e-06
6.18912e-06
-9.71543e-06
1.10767e-05
-7.84091e-06
1.4328e-05
-2.60729e-06
1.38068e-05
6.32859e-06
1.19166e-05
1.83012e-05
1.05788e-05
1.51924e-05
8.52813e-06
7.7244e-07
7.89968e-06
-6.92649e-06
6.05616e-06
-2.37816e-06
1.40246e-05
8.86083e-07
-5.29168e-06
1.52351e-06
-8.34246e-06
3.50205e-06
-5.9325e-06
5.29751e-06
-8.8497e-06
6.43457e-06
-7.92887e-06
6.18785e-06
1.22592e-06
3.56927e-06
8.44141e-06
2.68397e-06
3.48192e-06
3.14432e-06
-5.09195e-06
2.14188e-06
-8.71301e-06
4.26295e-06
-9.96208e-06
9.24653e-06
-7.59104e-06
1.06966e-05
4.87825e-06
1.23881e-05
1.66095e-05
1.27097e-05
1.48706e-05
1.04517e-05
3.03014e-06
8.41143e-06
-4.88647e-06
5.55726e-06
4.7564e-07
1.95818e-05
5.06646e-06
-1.03578e-05
6.00319e-06
-9.27885e-06
7.04043e-06
-6.96946e-06
7.63156e-06
-9.44058e-06
7.54151e-06
-7.83862e-06
6.85162e-06
1.91595e-06
6.39584e-06
8.89731e-06
6.57549e-06
3.3023e-06
6.25505e-06
-4.77148e-06
1.81125e-06
-4.26923e-06
3.34371e-07
-8.48525e-06
4.48259e-06
-1.17393e-05
8.06377e-06
1.29697e-06
1.11898e-05
1.34834e-05
1.24704e-05
1.35899e-05
1.05412e-05
4.95918e-06
7.56841e-06
-1.91382e-06
4.36463e-06
3.67938e-06
2.39463e-05
4.63431e-07
-4.33294e-06
1.38766e-06
-4.94514e-06
2.05789e-06
-3.3917e-06
2.54034e-06
-2.30939e-06
2.89945e-06
-1.94224e-06
3.11938e-06
-1.87057e-06
2.81682e-06
-9.90499e-07
2.49626e-06
-3.62664e-07
2.56991e-06
2.38356e-07
2.85038e-06
8.63959e-07
2.67121e-06
1.5829e-06
1.01062e-06
2.1813e-06
-1.26136e-06
2.0135e-06
-2.76487e-06
9.01857e-07
-3.04799e-06
1.03959e-07
-2.89138e-06
8.99381e-07
-3.01483e-06
6.94304e-07
-2.31179e-06
-1.48137e-06
-9.81195e-07
-1.84514e-06
3.03376e-07
2.4487e-07
1.51273e-06
2.01439e-06
5.67879e-06
5.07795e-07
-5.08449e-06
1.63318e-05
-1.52604e-07
-4.18017e-06
-1.66761e-06
-3.43e-06
-2.65733e-06
-2.40184e-06
-2.2046e-06
-2.76198e-06
-1.15487e-06
-2.99176e-06
-9.19789e-07
-2.10545e-06
-1.73985e-06
-1.70179e-07
-1.9286e-06
-1.73644e-07
-1.12238e-06
-5.67615e-07
-1.2441e-07
-1.33791e-07
7.09439e-08
1.3877e-06
-1.18812e-06
3.4405e-06
-2.80988e-06
3.63532e-06
-3.52676e-06
1.61878e-06
-3.49573e-06
7.29162e-08
-3.63121e-06
1.03483e-06
-4.07238e-06
1.13545e-06
-4.22206e-06
-1.33173e-06
-4.07011e-06
-1.9971e-06
-2.46048e-06
-1.36476e-06
1.3862e-06
-1.83224e-06
6.52777e-06
-4.63405e-06
-8.4209e-06
9.86404e-06
1.28097e-06
-5.46102e-06
1.55803e-06
-3.70689e-06
1.83201e-06
-2.67561e-06
2.17982e-07
-1.14772e-06
-8.73322e-07
-1.90022e-06
-2.87255e-06
-1.05933e-07
-6.01498e-06
2.97255e-06
-8.31666e-06
2.12831e-06
-9.29093e-06
4.06883e-07
-1.05382e-05
1.11363e-06
-1.23562e-05
3.20586e-06
-1.36029e-05
4.68715e-06
-1.43662e-05
4.39861e-06
-1.50213e-05
2.27379e-06
-1.58666e-05
9.18031e-07
-1.60521e-05
1.22014e-06
-1.57759e-05
8.58966e-07
-1.56036e-05
-1.50424e-06
-1.46208e-05
-2.98012e-06
-1.25768e-05
-3.40896e-06
-9.35177e-06
-5.05765e-06
-5.0533e-06
-8.93263e-06
-1.21155e-05
-1.35898e-06
2.18608e-06
-7.64681e-06
5.71915e-06
-7.23972e-06
5.71569e-06
-2.67189e-06
1.0267e-06
3.54158e-06
-4.83137e-06
3.95814e-06
-1.07685e-05
5.83148e-06
-1.71088e-05
9.31302e-06
-2.35465e-05
8.56626e-06
-2.90545e-05
5.91498e-06
-3.47001e-05
6.75927e-06
-3.92308e-05
7.73651e-06
-4.17175e-05
7.17373e-06
-4.26391e-05
5.32006e-06
-4.256e-05
2.19437e-06
-4.16014e-05
-4.08641e-08
-3.91651e-05
-1.21659e-06
-3.62016e-05
-2.10504e-06
-3.35761e-05
-4.13024e-06
-2.99505e-05
-6.6061e-06
-2.50803e-05
-8.27969e-06
-2.05869e-05
-9.55143e-06
-1.74522e-05
-1.20678e-05
-1.36905e-05
-1.58777e-05
-4.33069e-06
-3.31601e-06
-8.45347e-06
-3.11676e-06
-1.39924e-05
2.86724e-06
-1.97127e-05
9.2621e-06
-2.69531e-05
1.11986e-05
-3.42805e-05
1.31589e-05
-4.09367e-05
1.59692e-05
-4.78969e-05
1.55264e-05
-5.48261e-05
1.2844e-05
-5.92087e-05
1.11418e-05
-6.09025e-05
9.43018e-06
-6.08726e-05
7.1438e-06
-5.97098e-05
4.15714e-06
-5.8413e-05
8.97445e-07
-5.66519e-05
-1.80233e-06
-5.40706e-05
-3.79838e-06
-5.04541e-05
-5.72216e-06
-4.6479e-05
-8.10607e-06
-4.19827e-05
-1.11029e-05
-3.62502e-05
-1.40126e-05
-3.04033e-05
-1.53989e-05
-2.68491e-05
-1.56226e-05
-1.62067e-05
-2.43333e-05
-6.49631e-06
3.18042e-06
-1.40313e-05
4.4183e-06
-2.09416e-05
9.77757e-06
-2.66764e-05
1.49969e-05
-3.30953e-05
1.76172e-05
-4.02666e-05
2.03299e-05
-4.67772e-05
2.24795e-05
-5.30811e-05
2.18302e-05
-5.93586e-05
1.91216e-05
-6.40482e-05
1.58315e-05
-6.65517e-05
1.19338e-05
-6.70173e-05
7.60953e-06
-6.58985e-05
3.03834e-06
-6.38743e-05
-1.12698e-06
-6.1056e-05
-4.62107e-06
-5.73879e-05
-7.46708e-06
-5.32017e-05
-9.90904e-06
-4.89796e-05
-1.23288e-05
-4.50328e-05
-1.50502e-05
-4.12208e-05
-1.78252e-05
-3.61666e-05
-2.04536e-05
-3.06495e-05
-2.11401e-05
-2.13716e-05
-2.54851e-05
-6.35661e-06
9.5369e-06
-1.33194e-05
1.13809e-05
-1.94083e-05
1.58663e-05
-2.50407e-05
2.06287e-05
-3.18759e-05
2.44516e-05
-3.92949e-05
2.77484e-05
-4.65042e-05
2.96891e-05
-5.3563e-05
2.88894e-05
-6.01512e-05
2.57101e-05
-6.51191e-05
2.07995e-05
-6.77147e-05
1.45296e-05
-6.8067e-05
7.96186e-06
-6.64142e-05
1.38555e-06
-6.42947e-05
-3.24662e-06
-6.09184e-05
-7.99758e-06
-5.64814e-05
-1.19043e-05
-5.16251e-05
-1.47656e-05
-4.6624e-05
-1.733e-05
-4.18117e-05
-1.98625e-05
-3.87374e-05
-2.08996e-05
-3.63699e-05
-2.2821e-05
-3.38651e-05
-2.36451e-05
-2.38412e-05
-3.13956e-05
-5.45052e-06
1.49869e-05
-1.11663e-05
1.70962e-05
-1.66104e-05
2.13099e-05
-2.23292e-05
2.63471e-05
-2.94645e-05
3.15866e-05
-3.80572e-05
3.63413e-05
-4.74508e-05
3.90831e-05
-5.712e-05
3.85585e-05
-6.57254e-05
3.43157e-05
-7.18606e-05
2.69349e-05
-7.44608e-05
1.71303e-05
-7.42745e-05
7.77727e-06
-7.18034e-05
-1.08194e-06
-6.81747e-05
-6.8687e-06
-6.34253e-05
-1.27385e-05
-5.78436e-05
-1.74771e-05
-5.23675e-05
-2.02357e-05
-4.67659e-05
-2.29253e-05
-4.0995e-05
-2.56292e-05
-3.76207e-05
-2.42716e-05
-3.59214e-05
-2.45187e-05
-3.40191e-05
-2.55462e-05
-2.47242e-05
-3.31356e-05
-3.2849e-06
1.8271e-05
-6.59291e-06
2.04038e-05
-9.30958e-06
2.4027e-05
-1.2593e-05
2.96311e-05
-1.82624e-05
3.72563e-05
-2.67224e-05
4.4802e-05
-3.71797e-05
4.95406e-05
-4.97531e-05
5.11341e-05
-6.19617e-05
4.65346e-05
-7.1477e-05
3.6451e-05
-7.47723e-05
2.0427e-05
-7.60111e-05
9.01833e-06
-6.89711e-05
-8.12098e-06
-6.85017e-05
-7.33871e-06
-6.62226e-05
-1.50178e-05
-6.40336e-05
-1.96665e-05
-6.28634e-05
-2.14068e-05
-5.86774e-05
-2.71112e-05
-5.31149e-05
-3.11908e-05
-4.68153e-05
-3.0569e-05
-4.11681e-05
-3.01629e-05
-2.81987e-05
-3.85148e-05
-3.38247e-05
-1.90983e-05
8.8379e-08
1.81823e-05
6.14841e-07
1.98778e-05
1.24523e-06
2.33972e-05
1.67581e-06
2.92016e-05
7.9088e-07
3.81437e-05
2.05478e-06
4.35397e-05
2.8389e-05
2.32043e-05
5.85616e-05
2.09653e-05
2.07721e-05
8.43043e-05
8.74435e-06
4.84798e-05
5.16918e-06
2.40023e-05
-1.03985e-05
2.45827e-05
-2.40545e-05
5.53015e-06
-2.98075e-05
-1.59402e-06
-3.92231e-05
-5.61246e-06
-5.00072e-05
-8.892e-06
-5.41911e-05
-1.72299e-05
-4.89514e-05
-3.23558e-05
-3.84227e-05
-4.17213e-05
-2.64269e-05
-4.25657e-05
-1.68699e-05
-3.97228e-05
-1.62227e-05
-3.91628e-05
-3.77317e-05
-1.23112e-05
4.60435e-06
1.3578e-05
1.07671e-05
1.37152e-05
1.97581e-05
1.44079e-05
2.88011e-05
2.01616e-05
3.08426e-05
3.60988e-05
4.41658e-05
3.02081e-05
6.29725e-05
4.39362e-06
6.50186e-05
1.89078e-05
8.5765e-05
6.35608e-05
9.4678e-05
3.95833e-05
7.4168e-05
4.45129e-05
5.92286e-05
3.95194e-05
4.36381e-05
2.11181e-05
3.68551e-05
5.18763e-06
3.55469e-05
-4.3049e-06
3.77342e-05
-1.10797e-05
3.85822e-05
-1.80767e-05
3.20752e-05
-2.58482e-05
2.08699e-05
-3.05136e-05
9.78357e-06
-3.14768e-05
1.16465e-06
-3.11044e-05
-6.82341e-06
-3.11726e-05
-3.06834e-05
-1.38699e-05
1.50046e-05
-1.42629e-06
3.18046e-05
-3.08549e-06
3.2039e-05
1.41718e-05
3.01841e-05
2.20103e-05
3.5791e-05
3.04869e-05
5.02605e-05
1.57402e-05
5.61401e-05
-1.48373e-06
4.25271e-05
3.25181e-05
6.53122e-05
4.0803e-05
5.10125e-05
5.389e-05
4.18504e-05
5.36747e-05
4.36331e-05
3.77346e-05
4.47306e-05
2.00191e-05
4.28439e-05
7.07369e-06
4.17433e-05
-3.20389e-06
4.15841e-05
-1.09195e-05
3.99802e-05
-1.64716e-05
3.43969e-05
-2.02635e-05
2.65051e-05
-2.26204e-05
2.02675e-05
-2.52375e-05
1.65443e-05
-2.73789e-05
1.26522e-05
-2.7281e-05
-2.52558e-05
7.22656e-06
9.76024e-06
-1.11863e-05
1.89013e-05
-1.22271e-05
2.68362e-05
6.2334e-06
2.48201e-05
2.40266e-05
3.8599e-05
1.67122e-05
4.35655e-05
1.07772e-05
2.78966e-05
1.41795e-05
1.94219e-05
4.09817e-05
1.17457e-05
4.84718e-05
1.43788e-05
5.1253e-05
2.42491e-05
4.38002e-05
3.18657e-05
3.01145e-05
3.58777e-05
1.60048e-05
3.8479e-05
4.47127e-06
3.79853e-05
-2.71058e-06
3.66156e-05
-9.5496e-06
3.45671e-05
-1.44227e-05
3.1007e-05
-1.67033e-05
2.60013e-05
-1.76147e-05
2.18399e-05
-2.10763e-05
1.93114e-05
-2.48513e-05
1.69863e-05
-2.49553e-05
-2.17073e-05
1.3437e-05
7.45842e-06
-1.86437e-05
4.87281e-06
-9.64069e-06
2.48047e-06
8.62604e-06
3.01193e-06
2.34954e-05
5.04717e-06
1.46781e-05
-6.46121e-07
1.64667e-05
-6.84528e-06
2.0372e-05
-5.07073e-06
3.92006e-05
1.20146e-06
4.21946e-05
1.16252e-05
4.08249e-05
2.21813e-05
3.32401e-05
2.99139e-05
2.23788e-05
3.39164e-05
1.2e-05
3.44781e-05
3.90806e-06
3.37402e-05
-1.97364e-06
3.15957e-05
-7.40568e-06
2.87599e-05
-1.15875e-05
2.52235e-05
-1.31674e-05
2.17648e-05
-1.41568e-05
1.91304e-05
-1.8443e-05
1.6946e-05
-2.26679e-05
1.43963e-05
-2.24077e-05
-1.71238e-05
9.81108e-06
-6.84307e-06
-1.17998e-05
-1.38346e-05
-2.64971e-06
-1.26315e-05
7.42294e-06
-8.29045e-06
1.91524e-05
-9.13601e-06
1.55221e-05
-9.72814e-06
1.70571e-05
-1.13761e-05
2.20179e-05
-5.12153e-06
3.29448e-05
3.49962e-06
3.35706e-05
1.39394e-05
3.03824e-05
2.27253e-05
2.44519e-05
2.81698e-05
1.69324e-05
3.03896e-05
9.77869e-06
3.05407e-05
3.75574e-06
2.97392e-05
-1.17304e-06
2.7622e-05
-5.28925e-06
2.46076e-05
-8.57384e-06
2.1595e-05
-1.01556e-05
1.93552e-05
-1.1918e-05
1.67109e-05
-1.58e-05
1.38439e-05
-1.98024e-05
1.01087e-05
-1.86738e-05
-1.15419e-05
4.52516e-06
-6.67922e-06
-5.11886e-06
-9.84171e-06
5.13615e-07
-1.06217e-05
8.20313e-06
-7.14307e-06
1.5674e-05
-7.16107e-06
1.55406e-05
-7.53795e-06
1.7435e-05
-6.52077e-06
2.10016e-05
-1.65169e-07
2.65899e-05
7.67983e-06
2.57252e-05
1.53265e-05
2.27351e-05
2.13593e-05
1.84183e-05
2.50081e-05
1.32828e-05
2.66162e-05
8.16981e-06
2.67864e-05
3.58477e-06
2.59614e-05
-3.48803e-07
2.4287e-05
-3.61555e-06
2.18653e-05
-6.15289e-06
1.96752e-05
-7.96626e-06
1.76378e-05
-9.88141e-06
1.48203e-05
-1.29834e-05
1.11433e-05
-1.61266e-05
6.57856e-06
-1.41101e-05
-5.05477e-06
8.97762e-08
-5.48088e-06
3.6319e-07
-8.05373e-06
3.08745e-06
-7.56425e-06
7.7144e-06
-5.24302e-06
1.33536e-05
-4.60134e-06
1.49001e-05
-3.83336e-06
1.66685e-05
-1.606e-06
1.87759e-05
3.98064e-06
2.10046e-05
9.81001e-06
1.98967e-05
1.49873e-05
1.75582e-05
1.89783e-05
1.44273e-05
2.14737e-05
1.07872e-05
2.26193e-05
7.02381e-06
2.27278e-05
3.4759e-06
2.20856e-05
2.92875e-07
2.08885e-05
-2.419e-06
1.93645e-05
-4.62949e-06
1.78191e-05
-6.42145e-06
1.60783e-05
-8.14125e-06
1.34058e-05
-1.03116e-05
9.81746e-06
-1.2539e-05
6.46927e-06
-1.07629e-05
-1.9706e-06
3.38409e-06
-3.01026e-06
3.37492e-06
-4.94664e-06
5.02492e-06
-5.14861e-06
7.91726e-06
-3.7034e-06
1.19093e-05
-2.47898e-06
1.36771e-05
-8.6451e-07
1.50558e-05
1.74518e-06
1.6168e-05
5.92439e-06
1.68269e-05
9.97205e-06
1.58501e-05
1.34713e-05
1.40595e-05
1.61754e-05
1.17236e-05
1.795e-05
9.01268e-06
1.88499e-05
6.12388e-06
1.90147e-05
3.31087e-06
1.86302e-05
6.77019e-07
1.78625e-05
-1.65165e-06
1.68738e-05
-3.6412e-06
1.57826e-05
-5.33072e-06
1.4463e-05
-6.82208e-06
1.24566e-05
-8.30556e-06
9.6064e-06
-9.68937e-06
7.31073e-06
-8.46751e-06
-1.49773e-06
6.83688e-06
-1.7673e-06
5.1427e-06
-3.11123e-06
6.36952e-06
-3.47855e-06
8.28527e-06
-2.47197e-06
1.09036e-05
-1.13193e-06
1.23381e-05
6.52101e-07
1.32731e-05
3.02161e-06
1.37999e-05
6.03552e-06
1.38142e-05
8.93122e-06
1.29553e-05
1.14524e-05
1.1539e-05
1.34594e-05
9.71691e-06
1.48711e-05
7.60116e-06
1.5675e-05
5.31997e-06
1.59492e-05
3.03655e-06
1.5779e-05
8.47057e-07
1.52876e-05
-1.16059e-06
1.45876e-05
-2.9415e-06
1.37521e-05
-4.49556e-06
1.27613e-05
-5.8315e-06
1.13971e-05
-6.94153e-06
9.4005e-06
-7.69296e-06
7.80185e-06
-6.86943e-06
-1.90078e-06
8.20435e-06
-1.14643e-06
6.28983e-06
-2.12055e-06
7.34414e-06
-2.43481e-06
8.59999e-06
-1.73311e-06
1.02024e-05
-5.47674e-07
1.11535e-05
1.04699e-06
1.16794e-05
3.02632e-06
1.18216e-05
5.3037e-06
1.15377e-05
7.51917e-06
1.07405e-05
9.5018e-06
9.55688e-06
1.11441e-05
8.07488e-06
1.23729e-05
6.37259e-06
1.31492e-05
4.54371e-06
1.35012e-05
2.68445e-06
1.34778e-05
8.70413e-07
1.31551e-05
-8.38127e-07
1.26091e-05
-2.3957e-06
1.19027e-05
-3.78943e-06
1.10665e-05
-4.99546e-06
1.00726e-05
-5.94766e-06
8.82709e-06
-6.44762e-06
7.7999e-06
-5.84208e-06
-2.49408e-06
8.39263e-06
-8.70166e-07
7.15994e-06
-1.63074e-06
8.10483e-06
-1.89484e-06
8.8643e-06
-1.4239e-06
9.73181e-06
-4.62984e-07
1.0193e-05
8.80334e-07
1.03367e-05
2.52208e-06
1.01805e-05
4.34668e-06
9.71369e-06
6.15615e-06
8.93155e-06
7.81866e-06
7.89473e-06
9.23798e-06
6.65579e-06
1.03418e-05
5.2689e-06
1.10916e-05
3.79393e-06
1.1488e-05
2.2881e-06
1.15579e-05
8.00371e-07
1.13511e-05
-6.314e-07
1.09204e-05
-1.9652e-06
1.03148e-05
-3.18395e-06
9.57842e-06
-4.25916e-06
8.75234e-06
-5.12154e-06
7.91167e-06
-5.60683e-06
7.37038e-06
-5.30102e-06
-3.19638e-06
8.07243e-06
-7.85613e-07
7.94567e-06
-1.45342e-06
8.77262e-06
-1.71648e-06
9.12739e-06
-1.40398e-06
9.41943e-06
-6.40181e-07
9.42944e-06
4.76569e-07
9.22028e-06
1.85688e-06
8.80055e-06
3.38917e-06
8.1818e-06
4.93481e-06
7.38624e-06
6.37964e-06
6.45016e-06
7.63176e-06
5.40384e-06
8.62624e-06
4.27453e-06
9.32889e-06
3.09133e-06
9.73588e-06
1.88112e-06
9.86354e-06
6.72679e-07
9.74518e-06
-5.13098e-07
9.41734e-06
-1.63745e-06
8.91677e-06
-2.68345e-06
8.28262e-06
-3.62505e-06
7.57225e-06
-4.41109e-06
6.89021e-06
-4.92477e-06
6.52301e-06
-4.93358e-06
-3.85078e-06
7.17708e-06
-7.92464e-07
8.73769e-06
-1.45401e-06
9.43391e-06
-1.73485e-06
9.4081e-06
-1.53768e-06
9.22223e-06
-9.54497e-07
8.84635e-06
-3.4366e-08
8.30033e-06
1.1513e-06
7.61512e-06
2.48672e-06
6.84661e-06
3.8511e-06
6.02208e-06
5.13672e-06
5.16471e-06
6.25793e-06
4.28276e-06
7.15699e-06
3.37556e-06
7.80511e-06
2.44327e-06
8.19922e-06
1.48703e-06
8.35604e-06
5.15857e-07
8.29802e-06
-4.55098e-07
8.05354e-06
-1.39298e-06
7.65161e-06
-2.28156e-06
7.12672e-06
-3.10014e-06
6.52243e-06
-3.80668e-06
5.93385e-06
-4.33602e-06
5.55972e-06
-4.55953e-06
-4.17488e-06
5.88362e-06
-8.51191e-07
9.5886e-06
-1.55956e-06
1.0142e-05
-1.90607e-06
9.75437e-06
-1.84373e-06
9.15976e-06
-1.38699e-06
8.38957e-06
-5.90844e-07
7.50423e-06
4.61193e-07
6.5632e-06
1.66784e-06
5.64011e-06
2.90952e-06
4.78053e-06
4.08156e-06
3.99279e-06
5.10299e-06
3.26144e-06
5.92269e-06
2.55594e-06
6.51728e-06
1.84874e-06
6.88803e-06
1.11632e-06
7.04925e-06
3.54668e-07
7.02322e-06
-4.29058e-07
6.83505e-06
-1.2048e-06
6.51163e-06
-1.95813e-06
6.07973e-06
-2.66821e-06
5.58118e-06
-3.30798e-06
5.08117e-06
-3.83592e-06
4.69467e-06
-4.17282e-06
-4.17489e-06
4.69447e-06
-9.35594e-07
1.05236e-05
-1.71329e-06
1.09192e-05
-2.14469e-06
1.01854e-05
-2.17663e-06
9.19148e-06
-1.83489e-06
8.04771e-06
-1.13687e-06
6.80618e-06
-1.68643e-07
5.595e-06
9.5805e-07
4.51348e-06
2.11847e-06
3.62019e-06
3.20936e-06
2.90198e-06
4.15538e-06
2.3155e-06
4.91065e-06
1.80074e-06
5.45696e-06
1.3025e-06
5.79841e-06
7.74914e-07
5.94746e-06
2.05664e-07
5.93081e-06
-4.1236e-07
5.77267e-06
-1.04662e-06
5.49961e-06
-1.68503e-06
5.13873e-06
-2.30725e-06
4.72393e-06
-2.89302e-06
4.30378e-06
-3.41557e-06
3.95161e-06
-3.82061e-06
-4.01947e-06
3.79607e-06
-1.03631e-06
1.15594e-05
-1.90022e-06
1.17826e-05
-2.41491e-06
1.06997e-05
-2.53882e-06
9.31512e-06
-2.26385e-06
7.77256e-06
-1.62592e-06
6.16815e-06
-7.07831e-07
4.67688e-06
3.62444e-07
3.44321e-06
1.46286e-06
2.51981e-06
2.49152e-06
1.87336e-06
3.37856e-06
1.42852e-06
4.08289e-06
1.09646e-06
4.58821e-06
7.97245e-07
4.89817e-06
4.6502e-07
5.03116e-06
7.27393e-08
5.00993e-06
-3.91071e-07
4.86343e-06
-9.00052e-07
4.6179e-06
-1.43942e-06
4.29938e-06
-1.98864e-06
3.93857e-06
-2.53202e-06
3.57413e-06
-3.05098e-06
3.25753e-06
-3.50382e-06
-3.81562e-06
3.05358e-06
-1.13495e-06
1.26937e-05
-2.08849e-06
1.27356e-05
-2.67358e-06
1.12844e-05
-2.85995e-06
9.50117e-06
-2.63647e-06
7.54885e-06
-2.04043e-06
5.57197e-06
-1.16152e-06
3.79789e-06
-1.42621e-07
2.42428e-06
9.0398e-07
1.47321e-06
1.87809e-06
8.99271e-07
2.71685e-06
5.89801e-07
3.3819e-06
4.31461e-07
3.85883e-06
3.20373e-07
4.14681e-06
1.77116e-07
4.26454e-06
-4.4922e-08
4.23563e-06
-3.6208e-07
4.09081e-06
-7.55151e-07
3.85669e-06
-1.20522e-06
3.56033e-06
-1.69216e-06
3.22716e-06
-2.19866e-06
2.89013e-06
-2.71376e-06
2.58817e-06
-3.20174e-06
-3.58845e-06
2.36092e-06
-1.23207e-06
1.39252e-05
-2.26668e-06
1.37697e-05
-2.91933e-06
1.19366e-05
-3.15238e-06
9.73388e-06
-2.96141e-06
7.35764e-06
-2.39215e-06
5.00254e-06
-1.55558e-06
2.96121e-06
-5.94062e-07
1.4627e-06
3.92519e-07
4.86602e-07
1.31673e-06
-2.49349e-08
2.11438e-06
-2.07818e-07
2.75287e-06
-2.06984e-07
3.2143e-06
-1.40999e-07
3.49461e-06
-1.03118e-07
3.60823e-06
-1.58461e-07
3.57535e-06
-3.29111e-07
3.4299e-06
-6.09608e-07
3.20109e-06
-9.7631e-07
2.91282e-06
-1.40377e-06
2.59089e-06
-1.87652e-06
2.26174e-06
-2.38442e-06
1.95731e-06
-2.89716e-06
-3.33831e-06
1.70713e-06
-1.32164e-06
1.52463e-05
-2.4352e-06
1.48828e-05
-3.15097e-06
1.2652e-05
-3.42151e-06
1.00041e-05
-3.23992e-06
7.17579e-06
-2.67379e-06
4.43623e-06
-1.89448e-06
2.18177e-06
-1.02077e-06
5.88904e-07
-1.05889e-07
-4.28313e-07
7.62505e-07
-8.93336e-07
1.52422e-06
-9.6951e-07
2.14645e-06
-8.2918e-07
2.60892e-06
-6.0341e-07
2.901e-06
-3.9512e-07
3.02324e-06
-2.80613e-07
2.99798e-06
-3.03753e-07
2.85686e-06
-4.68391e-07
2.63137e-06
-7.50705e-07
2.34795e-06
-1.12022e-06
2.0282e-06
-1.55656e-06
1.69571e-06
-2.05175e-06
1.37775e-06
-2.57902e-06
-3.06373e-06
1.10311e-06
-1.40086e-06
1.66466e-05
-2.58865e-06
1.60701e-05
-3.36804e-06
1.3431e-05
-3.67721e-06
1.03129e-05
-3.48881e-06
6.98714e-06
-2.91752e-06
3.86475e-06
-2.21113e-06
1.47525e-06
-1.44108e-06
-1.81221e-07
-6.02331e-07
-1.26711e-06
2.05072e-07
-1.70075e-06
9.25971e-07
-1.69039e-06
1.53538e-06
-1.43855e-06
2.00918e-06
-1.07715e-06
2.32672e-06
-7.12579e-07
2.47921e-06
-4.33011e-07
2.47791e-06
-3.02355e-07
2.35201e-06
-3.42386e-07
2.13441e-06
-5.32986e-07
1.85485e-06
-8.4053e-07
1.53505e-06
-1.23655e-06
1.1964e-06
-1.71289e-06
8.63692e-07
-2.24619e-06
-2.76293e-06
5.62923e-07
-1.45592e-06
1.81021e-05
-2.70567e-06
1.73194e-05
-3.54151e-06
1.42664e-05
-3.86992e-06
1.0641e-05
-3.70164e-06
6.81863e-06
-3.1907e-06
3.35363e-06
-2.56254e-06
8.46968e-07
-1.84183e-06
-9.02011e-07
-1.07021e-06
-2.03877e-06
-3.39763e-07
-2.43121e-06
3.26493e-07
-2.35663e-06
9.1201e-07
-2.02402e-06
1.39857e-06
-1.56365e-06
1.75266e-06
-1.06659e-06
1.95163e-06
-6.31893e-07
1.99425e-06
-3.4487e-07
1.89584e-06
-2.43869e-07
1.69567e-06
-3.32708e-07
1.42564e-06
-5.70353e-07
1.10904e-06
-9.19761e-07
7.65531e-07
-1.36922e-06
4.19265e-07
-1.89972e-06
-2.43988e-06
9.62066e-08
-1.46453e-06
1.95662e-05
-2.74608e-06
1.86006e-05
-3.60912e-06
1.51292e-05
-3.9409e-06
1.09726e-05
-3.84452e-06
6.72205e-06
-3.46129e-06
2.97025e-06
-2.86605e-06
2.51624e-07
-2.13055e-06
-1.63758e-06
-1.42318e-06
-2.74617e-06
-7.80787e-07
-3.07361e-06
-2.05846e-07
-2.93155e-06
3.20166e-07
-2.54999e-06
7.90813e-07
-2.03424e-06
1.17485e-06
-1.45054e-06
1.42935e-06
-8.863e-07
1.52854e-06
-4.4396e-07
1.47782e-06
-1.93036e-07
1.30708e-06
-1.61865e-07
1.05354e-06
-3.16682e-07
7.45827e-07
-6.11868e-07
4.04092e-07
-1.0273e-06
5.06729e-08
-1.54625e-06
-2.10238e-06
-2.86803e-07
-1.40033e-06
2.09662e-05
-2.66468e-06
1.98646e-05
-3.50611e-06
1.59703e-05
-3.86821e-06
1.13344e-05
-3.8624e-06
6.71606e-06
-3.56865e-06
2.67638e-06
-2.9287e-06
-3.88417e-07
-2.21577e-06
-2.35057e-06
-1.61027e-06
-3.35169e-06
-1.09372e-06
-3.59015e-06
-6.3223e-07
-3.39301e-06
-1.98975e-07
-2.98319e-06
2.19988e-07
-2.45313e-06
6.05829e-07
-1.8363e-06
9.07619e-07
-1.188e-06
1.0738e-06
-6.10035e-07
1.08606e-06
-2.052e-07
9.60511e-07
-3.62091e-08
7.35853e-07
-9.19031e-08
4.44677e-07
-3.20538e-07
1.12279e-07
-6.94802e-07
-2.41713e-07
-1.19209e-06
-1.7591e-06
-5.85052e-07
-1.24286e-06
2.22087e-05
-2.42278e-06
2.10443e-05
-3.20272e-06
1.675e-05
-3.59447e-06
1.1726e-05
-3.67499e-06
6.79645e-06
-3.34828e-06
2.34956e-06
-2.70183e-06
-1.03492e-06
-2.08851e-06
-2.96393e-06
-1.61495e-06
-3.82524e-06
-1.24554e-06
-3.95954e-06
-9.27415e-07
-3.71109e-06
-6.11731e-07
-3.29882e-06
-2.80237e-07
-2.78455e-06
7.04758e-08
-2.18693e-06
3.93255e-07
-1.51068e-06
6.24971e-07
-8.41654e-07
7.13581e-07
-2.93711e-07
6.50865e-07
2.66025e-08
4.64819e-07
9.42438e-08
2.01311e-07
-5.68953e-08
-1.14984e-07
-3.78367e-07
-4.56927e-07
-8.50139e-07
-1.41937e-06
-7.96642e-07
-9.86644e-07
2.31952e-05
-2.00687e-06
2.20643e-05
-2.69624e-06
1.74393e-05
-3.07812e-06
1.21078e-05
-3.16043e-06
6.87866e-06
-2.762e-06
1.95106e-06
-2.19434e-06
-1.60262e-06
-1.74549e-06
-3.4128e-06
-1.43845e-06
-4.13227e-06
-1.23077e-06
-4.16719e-06
-1.06399e-06
-3.87782e-06
-8.89848e-07
-3.4729e-06
-6.7416e-07
-3.00016e-06
-4.06932e-07
-2.45407e-06
-9.62406e-08
-1.82129e-06
1.81109e-07
-1.11891e-06
3.51597e-07
-4.64112e-07
3.65364e-07
1.29198e-08
2.37032e-07
2.22668e-07
1.12259e-08
1.69017e-07
-2.77489e-07
-8.95883e-08
-6.00851e-07
-5.26635e-07
-1.0935e-06
-9.26781e-07
-6.49479e-07
2.38445e-05
-1.43963e-06
2.28543e-05
-1.99188e-06
1.79914e-05
-2.29436e-06
1.24102e-05
-2.22985e-06
6.81408e-06
-1.82388e-06
1.54504e-06
-1.46657e-06
-1.95996e-06
-1.22244e-06
-3.65692e-06
-1.10883e-06
-4.24587e-06
-1.06617e-06
-4.20981e-06
-1.05142e-06
-3.89252e-06
-1.01837e-06
-3.50588e-06
-9.31991e-07
-3.08647e-06
-7.68412e-07
-2.61757e-06
-5.27551e-07
-2.06207e-06
-2.44848e-07
-1.40154e-06
-7.30662e-09
-7.01576e-07
9.74378e-08
-9.17528e-08
4.34049e-08
2.76769e-07
-1.36726e-07
3.49241e-07
-3.89227e-07
1.63e-07
-6.83115e-07
-2.32803e-07
-7.90512e-07
-9.8612e-07
-2.75926e-07
2.41203e-05
-7.71734e-07
2.335e-05
-1.13634e-06
1.83559e-05
-1.24945e-06
1.25232e-05
-9.80927e-07
6.54552e-06
-6.60345e-07
1.22444e-06
-5.49198e-07
-2.07111e-06
-5.48744e-07
-3.65736e-06
-6.43238e-07
-4.15134e-06
-7.78471e-07
-4.07454e-06
-9.09606e-07
-3.76134e-06
-1.00828e-06
-3.40715e-06
-1.04599e-06
-3.0487e-06
-1.00206e-06
-2.66144e-06
-8.61189e-07
-2.20287e-06
-6.26845e-07
-1.63581e-06
-3.61148e-07
-9.67208e-07
-1.69123e-07
-2.83719e-07
-1.3143e-07
2.39137e-07
-2.45398e-07
4.63271e-07
-4.56223e-07
3.73834e-07
-7.14656e-07