/*--------------------------------*- C++ -*----------------------------------*\
| =========                 |                                                 |
| \\      /  F ield         | OpenFOAM: The Open Source CFD Toolbox           |
|  \\    /   O peration     | Version:  2312                                  |
|   \\  /    A nd           | Website:  www.openfoam.com                      |
|    \\/     M anipulation  |                                                 |
\*---------------------------------------------------------------------------*/
FoamFile
{
    version     2.0;
    format      ascii;
    arch        "LSB;label=32;scalar=64";
    class       volVectorField;
    location    "4.7";
    object      U;
}
// * * * * * * * * * * * * * * * * * * * * * * * * * * * * * * * * * * * * * //

dimensions      [0 1 -1 0 0 0 0];

internalField   nonuniform List<vector> 
2268
(
(0.0067929 -0.00412922 0)
(0.00994431 -0.00161422 0)
(0.0126503 -0.000905465 0)
(0.0145018 -0.000552995 0)
(0.015779 -0.000342362 0)
(0.0166226 -0.000209436 0)
(0.0171959 -0.000149962 0)
(0.0177882 -0.000171854 0)
(0.0187392 -0.000266239 0)
(0.0202655 -0.000389028 0)
(0.0223444 -0.000488344 0)
(0.0247462 -0.000520517 0)
(0.027162 -0.000478254 0)
(0.0293066 -0.000367148 0)
(0.0309721 -0.000215152 0)
(0.0320495 -4.0884e-05 0)
(0.0324013 0.00016975 0)
(0.031671 0.000557656 0)
(0.0292574 0.00112663 0)
(0.0244924 0.00181204 0)
(0.0174657 0.00230939 0)
(0.00956602 0.00252605 0)
(0.00107412 0.00118203 0)
(0.000693558 -0.00441605 0)
(0.00410056 -0.00184743 0)
(0.00662154 -0.00139193 0)
(0.00870413 -0.00102135 0)
(0.0102152 -0.000716429 0)
(0.0112586 -0.000467592 0)
(0.0120289 -0.000382932 0)
(0.0128459 -0.000539764 0)
(0.0140699 -0.000899479 0)
(0.0159224 -0.00132715 0)
(0.018365 -0.00167892 0)
(0.0211383 -0.0018199 0)
(0.0239078 -0.00172334 0)
(0.0263782 -0.00142383 0)
(0.0283494 -0.00102127 0)
(0.0297419 -0.000565393 0)
(0.0304875 2.80629e-05 0)
(0.0302165 0.000955375 0)
(0.0282582 0.00240006 0)
(0.0238621 0.00415367 0)
(0.017198 0.00528467 0)
(0.00989961 0.0056271 0)
(0.00278681 0.0037559 0)
(-0.000523106 -0.00538301 0)
(0.00254532 -0.00369255 0)
(0.0048816 -0.00262677 0)
(0.00676089 -0.00184422 0)
(0.00796318 -0.00128161 0)
(0.00865158 -0.000859146 0)
(0.00911144 -0.000744245 0)
(0.00971153 -0.00105222 0)
(0.0108153 -0.00169717 0)
(0.0126265 -0.00242612 0)
(0.0151071 -0.00299797 0)
(0.0179845 -0.0031836 0)
(0.0208895 -0.00296495 0)
(0.0235067 -0.00241969 0)
(0.0256659 -0.00174865 0)
(0.0273752 -0.00106319 0)
(0.0286089 -0.000173577 0)
(0.0290355 0.00130468 0)
(0.0278701 0.00372858 0)
(0.0239809 0.00673039 0)
(0.0175617 0.00848505 0)
(0.0106435 0.00870656 0)
(0.00504666 0.00633906 0)
(0.000541659 -0.00578431 0)
(0.00385215 -0.0047432 0)
(0.00655814 -0.00332278 0)
(0.00824898 -0.00196905 0)
(0.00884813 -0.000941766 0)
(0.00889641 -0.000283124 0)
(0.00889904 -0.00029026 0)
(0.0091605 -0.000950825 0)
(0.00991221 -0.00205339 0)
(0.0113194 -0.00324848 0)
(0.0134364 -0.00422005 0)
(0.0160278 -0.00456346 0)
(0.0186788 -0.00426585 0)
(0.0210593 -0.00346781 0)
(0.0230605 -0.00252426 0)
(0.024875 -0.00162196 0)
(0.0266991 -0.000512794 0)
(0.0281939 0.0014904 0)
(0.028253 0.00501987 0)
(0.0250949 0.00959151 0)
(0.0187798 0.0121044 0)
(0.0119318 0.0120811 0)
(0.00758202 0.0106785 0)
(0.00270898 -0.00729272 0)
(0.00699 -0.006889 0)
(0.0108553 -0.00575313 0)
(0.0129002 -0.00433887 0)
(0.0131773 -0.00318741 0)
(0.0127509 -0.00233952 0)
(0.0125119 -0.00223228 0)
(0.0125832 -0.00278615 0)
(0.0128173 -0.00381241 0)
(0.0132718 -0.00500484 0)
(0.0144046 -0.00611798 0)
(0.0162221 -0.00637487 0)
(0.0180838 -0.00582023 0)
(0.0195653 -0.00469874 0)
(0.0207318 -0.00362678 0)
(0.0219914 -0.00284339 0)
(0.023861 -0.00182902 0)
(0.0264111 0.000788814 0)
(0.0281476 0.00488019 0)
(0.026165 0.0115369 0)
(0.0200069 0.0151734 0)
(0.0128246 0.0144012 0)
(0.00958511 0.0146857 0)
(0.0047711 -0.0118484 0)
(0.0110578 -0.0102992 0)
(0.0166478 -0.00764363 0)
(0.019226 -0.00425218 0)
(0.0195784 -0.00177472 0)
(0.0194889 -0.000732558 0)
(0.0201603 -0.00154212 0)
(0.0213477 -0.00334039 0)
(0.0225057 -0.00550724 0)
(0.0234047 -0.00772688 0)
(0.0239106 -0.00943219 0)
(0.0245238 -0.00949055 0)
(0.0251991 -0.0086561 0)
(0.0248057 -0.00704813 0)
(0.0231785 -0.0052396 0)
(0.0212247 -0.00389915 0)
(0.0208392 -0.00331151 0)
(0.022457 -0.0017139 0)
(0.0253661 0.00359383 0)
(0.0257094 0.0127458 0)
(0.0212294 0.0181667 0)
(0.0128633 0.0165212 0)
(0.00916486 0.0183417 0)
(0.00456256 -0.0123795 0)
(0.0134696 -0.00982298 0)
(0.0229581 -0.00521915 0)
(0.0298909 -0.00146577 0)
(0.0379564 0.000357853 0)
(0.0488514 0.00133083 0)
(0.0597344 0.00205366 0)
(0.0653991 0.00294174 0)
(0.0630867 0.00361971 0)
(0.0511869 0.00379851 0)
(0.0293582 0.0039748 0)
(0.0117308 -0.000716571 0)
(0.00769172 -0.00341768 0)
(0.010775 -0.00316795 0)
(0.0163622 -0.00251412 0)
(0.0206102 -0.00257523 0)
(0.0242969 -0.0026124 0)
(0.0287497 2.3823e-05 0)
(0.0272424 0.00734747 0)
(0.0230836 0.0172218 0)
(0.0206195 0.0228921 0)
(0.0130343 0.0227213 0)
(0.00724594 0.0258124 0)
(0.00449103 -0.0208074 0)
(0.0142856 -0.020869 0)
(0.0258659 -0.014335 0)
(0.0342539 -0.0102851 0)
(0.0376481 -0.0100283 0)
(0.0407678 -0.0107368 0)
(0.0452806 -0.00937992 0)
(0.0489266 -0.00618315 0)
(0.0511748 -0.00195187 0)
(0.0455919 0.00232435 0)
(0.0368023 0.00531582 0)
(0.0321663 -1.82528e-05 0)
(0.0232551 -0.00452445 0)
(0.0157924 -0.00541085 0)
(0.0106007 -0.00354799 0)
(-0.0050982 0.00107795 0)
(-0.0286342 -0.00232067 0)
(-0.0355762 -0.00415188 0)
(-0.0178159 0.00323638 0)
(0.000650608 0.0171064 0)
(0.0143994 0.0269938 0)
(0.0116867 0.0317457 0)
(0.00666092 0.0371603 0)
(-0.00829179 0.00134529 0)
(0.0141271 -0.00545512 0)
(0.043122 -0.00429365 0)
(0.0581979 -0.00177693 0)
(0.0647186 -0.00125923 0)
(0.0677757 -0.00054402 0)
(0.0664117 0.000458587 0)
(0.057129 0.00180076 0)
(0.0409021 0.00372934 0)
(0.0193189 0.00417977 0)
(0.00180855 0.00175053 0)
(-0.00739625 -8.3033e-05 0)
(-0.0134465 -0.000785046 0)
(-0.0162391 -0.0014865 0)
(-0.0157218 -0.00131358 0)
(-0.0137727 -0.00127467 0)
(-0.0103527 -0.000904592 0)
(-0.00644297 -0.00058572 0)
(-0.00137335 -0.000232289 0)
(0.00698975 -0.0033937 0)
(0.0310129 -0.0177489 0)
(0.0484733 -0.0152923 0)
(0.0657224 -0.00729752 0)
(0.0745025 -0.00293263 0)
(0.0764751 0.00142463 0)
(0.0735333 0.00527703 0)
(0.0653672 0.00797979 0)
(0.0494028 0.0119592 0)
(0.0258731 0.0135991 0)
(0.00523119 0.00921996 0)
(-0.00797694 0.00628179 0)
(-0.0162373 0.00527245 0)
(-0.0205993 0.00234996 0)
(-0.0230029 0.000544946 0)
(-0.0228992 -0.0020846 0)
(-0.0182578 -0.00296555 0)
(-0.0113314 -0.00357323 0)
(-0.0032464 -0.00345558 0)
(0.0204191 -0.0174205 0)
(0.0448465 -0.0225834 0)
(0.0449335 -0.0203613 0)
(0.0573924 -0.0132888 0)
(0.0696809 -0.00709026 0)
(0.0761795 0.000848656 0)
(0.0741773 0.00545977 0)
(0.0710116 0.00927852 0)
(0.0676458 0.0170013 0)
(0.0576844 0.0213534 0)
(0.0356948 0.0148853 0)
(0.0079826 0.00792845 0)
(-0.00957768 0.00254168 0)
(-0.0212957 -0.00113973 0)
(-0.0356064 -0.00134725 0)
(-0.0379344 -0.00402467 0)
(-0.0280774 -0.00608214 0)
(-0.0139963 -0.00723904 0)
(-0.00425978 -0.00751376 0)
(0.0142946 -0.0253253 0)
(0.0456662 -0.0227847 0)
(0.0353252 -0.0181302 0)
(0.03625 -0.0147077 0)
(0.0499611 -0.00935065 0)
(0.0672376 0.000330252 0)
(0.0835019 0.00704546 0)
(0.0818423 0.0121857 0)
(0.081038 0.0233226 0)
(0.0997481 0.0315132 0)
(0.127433 0.0282705 0)
(0.154136 0.0255975 0)
(0.171352 0.0175965 0)
(0.134705 0.0226465 0)
(-0.0194107 0.018495 0)
(-0.0433702 -0.00817081 0)
(-0.00130757 -0.0194334 0)
(0.0346508 -0.0160853 0)
(0.0339061 -0.00471951 0)
(-0.0141602 -0.0468233 0)
(0.00979933 -0.0370926 0)
(-0.00333261 -0.0143265 0)
(-0.0171395 -0.0195225 0)
(0.0106585 -0.020344 0)
(0.0044458 -0.00801596 0)
(-0.0149449 0.000315378 0)
(-0.0149618 0.017226 0)
(0.00595429 -0.000669 0)
(0.0852729 -0.00723889 0)
(0.164295 -0.0028538 0)
(0.213172 0.00552397 0)
(0.214565 0.016816 0)
(0.155811 0.0655532 0)
(0.06337 0.0582819 0)
(0.0528096 -0.010581 0)
(0.0627387 -0.0351047 0)
(0.0721551 -0.0223802 0)
(0.0728187 0.0238181 0)
(-0.0387632 -0.0306795 0)
(-0.027215 -0.0327649 0)
(-0.0273999 -0.00776861 0)
(0.0153856 -0.0231055 0)
(0.0491108 -0.0265216 0)
(0.0637903 0.00491789 0)
(0.00754173 0.0154458 0)
(-0.0245373 0.00851259 0)
(0.00953094 -0.0222357 0)
(0.0352459 -0.0440313 0)
(0.0960069 -0.0276305 0)
(0.15189 -0.00168118 0)
(0.173646 0.0309791 0)
(0.152041 0.0871492 0)
(0.118838 0.0742986 0)
(0.113112 -0.000247369 0)
(0.0939204 -0.0360879 0)
(0.078567 -0.018107 0)
(0.0718232 0.0517485 0)
(-0.00284945 -0.0169026 0)
(0.0221296 -0.04018 0)
(0.0147162 -0.0261849 0)
(0.0591271 -0.0428451 0)
(0.0690595 -0.0376665 0)
(0.082539 0.00388108 0)
(0.0479627 0.0346853 0)
(0.0269835 0.0138285 0)
(0.0420593 -0.0252904 0)
(0.0240398 -0.0478811 0)
(0.0279107 -0.0460877 0)
(0.0722515 -0.0233304 0)
(0.124647 0.0292381 0)
(0.136906 0.0873463 0)
(0.142045 0.0754068 0)
(0.138562 0.00970903 0)
(0.108807 -0.0286173 0)
(0.0740139 -0.00510083 0)
(0.0656239 0.0798589 0)
(0.0425007 -0.0427089 0)
(0.0675213 -0.0429168 0)
(0.0715202 -0.0325422 0)
(0.0881008 -0.0451974 0)
(0.0901015 -0.0393382 0)
(0.0860147 0.00679376 0)
(0.0672752 0.0433976 0)
(0.0722331 0.0183676 0)
(0.0830344 -0.0227866 0)
(0.0443033 -0.0307855 0)
(0.00377357 -0.0479239 0)
(0.00949781 -0.0527812 0)
(0.0814414 0.0142715 0)
(0.116556 0.0741198 0)
(0.138085 0.0697255 0)
(0.137725 0.0204785 0)
(0.108361 -0.0171557 0)
(0.0542766 0.0103612 0)
(0.0563701 0.105122 0)
(0.000351403 -0.0248934 0)
(0.0046348 -0.0276596 0)
(0.00944157 -0.0201778 0)
(0.0145159 -0.0138667 0)
(0.0142653 -0.0104816 0)
(0.0160774 -0.0102709 0)
(0.0159555 -0.00534915 0)
(0.0133902 0.00157512 0)
(0.0128318 0.00894222 0)
(0.0145126 0.0128657 0)
(0.0162685 0.0123679 0)
(0.0115575 0.00860494 0)
(-0.000840124 0.00462754 0)
(-0.0116941 0.00201474 0)
(-0.0158939 0.00359179 0)
(-0.0155747 0.0108063 0)
(-0.0165839 0.00816417 0)
(-0.0154561 -0.00729507 0)
(-0.00941991 -0.0146947 0)
(-0.00276602 -0.0045047 0)
(0.00572631 0.00407289 0)
(0.0175966 0.00785957 0)
(0.0478469 0.000354231 0)
(7.56811e-05 -0.0224166 0)
(-0.00337403 -0.0218591 0)
(-0.013527 -0.0122681 0)
(-0.0128676 -0.00928611 0)
(-0.00824772 -0.0114422 0)
(-0.00538456 -0.0105384 0)
(-0.00780796 -0.00495119 0)
(-0.0108511 -0.00445263 0)
(-0.0087541 -0.00483991 0)
(-0.0039326 -0.00160437 0)
(0.000506915 0.00797639 0)
(-0.00140203 0.0175627 0)
(-0.010061 0.0190057 0)
(-0.017548 0.00873065 0)
(-0.0211365 -0.00269997 0)
(-0.0167933 0.000600381 0)
(-0.0196532 0.00233735 0)
(-0.022565 -0.0105433 0)
(-0.0233853 -0.0120998 0)
(-0.0191552 -0.00199773 0)
(-0.00350321 0.000434853 0)
(0.0181471 -0.0141545 0)
(0.0465973 -0.0533283 0)
(0.00316337 -0.0224885 0)
(0.00856369 -0.0145236 0)
(0.00990196 -0.0124979 0)
(0.00780273 -0.0173273 0)
(-0.0024153 -0.0193219 0)
(-0.00960283 -0.0120509 0)
(-0.0244506 0.00249938 0)
(-0.0394752 0.000822081 0)
(-0.047538 -0.00675741 0)
(-0.0558307 -0.0061842 0)
(-0.0631799 0.00391264 0)
(-0.0696859 0.0142164 0)
(-0.0735269 0.015968 0)
(-0.0782787 0.0067279 0)
(-0.0839926 0.00189904 0)
(-0.0846438 0.00976476 0)
(-0.0848751 0.0102988 0)
(-0.0851364 -0.00192609 0)
(-0.0820588 -0.00758964 0)
(-0.0729058 -0.00795032 0)
(-0.0574314 -0.0159118 0)
(-0.037597 -0.0351112 0)
(-0.0202095 -0.0527061 0)
(0.00279715 -0.0434359 0)
(0.0227617 -0.0362047 0)
(0.0352496 -0.0254947 0)
(0.0230174 0.00379977 0)
(-0.0114037 0.00118991 0)
(-0.0432567 0.011783 0)
(-0.0737405 0.0326775 0)
(-0.109153 0.0274574 0)
(-0.143789 0.0139096 0)
(-0.173853 0.0221663 0)
(-0.201006 0.0362905 0)
(-0.218091 0.0413529 0)
(-0.226143 0.0352368 0)
(-0.231204 0.0198936 0)
(-0.22858 0.00919634 0)
(-0.216974 0.00479598 0)
(-0.200588 0.00047326 0)
(-0.18789 -0.0113606 0)
(-0.171248 -0.0211489 0)
(-0.147114 -0.0266563 0)
(-0.120339 -0.036273 0)
(-0.101063 -0.0565107 0)
(-0.0910732 -0.0708158 0)
(-0.0175906 -0.0374656 0)
(-0.0350881 -0.0353152 0)
(-0.0650415 0.000237671 0)
(-0.0852339 0.0343586 0)
(-0.126366 0.040851 0)
(-0.167545 0.0533617 0)
(-0.199966 0.0700383 0)
(-0.238296 0.0667846 0)
(-0.280724 0.053133 0)
(-0.310521 0.0501251 0)
(-0.324361 0.0455889 0)
(-0.327327 0.0362316 0)
(-0.32365 0.0225445 0)
(-0.318038 0.0060045 0)
(-0.310119 -0.00627922 0)
(-0.297841 -0.0138529 0)
(-0.280928 -0.0207499 0)
(-0.261173 -0.0329745 0)
(-0.237854 -0.0484328 0)
(-0.209543 -0.0605589 0)
(-0.177668 -0.0670428 0)
(-0.152555 -0.0726144 0)
(-0.140298 -0.0772475 0)
(-0.0237835 0.00165532 0)
(-0.0565776 0.00492389 0)
(-0.0972576 0.0355355 0)
(-0.126202 0.0651399 0)
(-0.16109 0.0759953 0)
(-0.198901 0.0880435 0)
(-0.233947 0.101173 0)
(-0.269099 0.0983342 0)
(-0.304697 0.0843096 0)
(-0.334356 0.0718802 0)
(-0.352739 0.0580769 0)
(-0.359744 0.0413995 0)
(-0.357688 0.0225381 0)
(-0.34935 0.00367191 0)
(-0.336089 -0.0137209 0)
(-0.318222 -0.027989 0)
(-0.296895 -0.0411195 0)
(-0.274352 -0.055321 0)
(-0.252722 -0.0730222 0)
(-0.232057 -0.0903928 0)
(-0.207129 -0.102185 0)
(-0.178348 -0.104461 0)
(-0.152938 -0.105319 0)
(-0.0236517 0.0336592 0)
(-0.0527846 0.0422338 0)
(-0.0901413 0.0690701 0)
(-0.118828 0.0968213 0)
(-0.152633 0.115379 0)
(-0.192314 0.133344 0)
(-0.231878 0.146866 0)
(-0.270503 0.145274 0)
(-0.308028 0.130448 0)
(-0.339307 0.10744 0)
(-0.358743 0.0779137 0)
(-0.365644 0.0460319 0)
(-0.362071 0.0134798 0)
(-0.352037 -0.0163064 0)
(-0.33681 -0.0407079 0)
(-0.315368 -0.059333 0)
(-0.29014 -0.0735675 0)
(-0.263468 -0.0868032 0)
(-0.236826 -0.0999786 0)
(-0.215111 -0.111037 0)
(-0.200546 -0.122581 0)
(-0.188066 -0.1271 0)
(-0.176978 -0.127399 0)
(-0.0210637 0.0645747 0)
(-0.043603 0.076329 0)
(-0.0754706 0.100228 0)
(-0.102816 0.126549 0)
(-0.138028 0.149697 0)
(-0.182521 0.1674 0)
(-0.231982 0.172929 0)
(-0.283954 0.157985 0)
(-0.333364 0.125596 0)
(-0.372768 0.0862823 0)
(-0.394888 0.0464513 0)
(-0.40094 0.0120263 0)
(-0.393791 -0.0164922 0)
(-0.376165 -0.042121 0)
(-0.353615 -0.0644042 0)
(-0.325516 -0.0813968 0)
(-0.295828 -0.0936358 0)
(-0.265906 -0.103572 0)
(-0.234075 -0.11343 0)
(-0.208994 -0.115545 0)
(-0.196674 -0.122439 0)
(-0.187203 -0.126712 0)
(-0.180875 -0.127513 0)
(-0.0153334 0.0872966 0)
(-0.0251236 0.100409 0)
(-0.0433474 0.124135 0)
(-0.0579242 0.155651 0)
(-0.0839891 0.187828 0)
(-0.12693 0.210228 0)
(-0.180473 0.215187 0)
(-0.238761 0.203474 0)
(-0.301731 0.182328 0)
(-0.357307 0.150281 0)
(-0.393641 0.109389 0)
(-0.407801 0.0758605 0)
(-0.391046 0.0300617 0)
(-0.363901 -0.00296992 0)
(-0.358556 -0.0471869 0)
(-0.348778 -0.0879001 0)
(-0.341488 -0.103103 0)
(-0.328639 -0.116384 0)
(-0.302066 -0.137855 0)
(-0.271994 -0.128915 0)
(-0.233965 -0.126631 0)
(-0.181818 -0.132244 0)
(-0.124876 -0.121828 0)
(-0.00536379 0.102278 0)
(0.00336743 0.118217 0)
(0.00273694 0.145947 0)
(0.00886668 0.17715 0)
(0.00734548 0.21183 0)
(-0.00350073 0.239595 0)
(-0.00173595 0.243349 0)
(0.162991 0.299133 0)
(0.420421 0.468569 0)
(0.0749019 0.446597 0)
(-0.0803558 0.190218 0)
(0.0559044 0.0665618 0)
(-0.0768348 -0.0611388 0)
(-0.127968 -0.0426187 0)
(-0.162599 -0.0474261 0)
(-0.250725 -0.0521822 0)
(-0.319702 -0.0906851 0)
(-0.273628 -0.178615 0)
(-0.224681 -0.214361 0)
(-0.184417 -0.205707 0)
(-0.1166 -0.200746 0)
(-0.0741758 -0.259619 0)
(-0.0740953 -0.237519 0)
(0.00581795 0.123497 0)
(0.0388747 0.130425 0)
(0.0657328 0.14401 0)
(0.108166 0.165619 0)
(0.145893 0.218377 0)
(0.219436 0.269996 0)
(0.250698 0.111371 0)
(0.328014 0.103863 0)
(0.492824 0.479872 0)
(0.438248 -0.0363348 0)
(0.454401 0.0673622 0)
(0.382319 0.155407 0)
(0.286522 0.0760645 0)
(0.213088 -0.0283121 0)
(0.190692 -0.0850282 0)
(0.192245 -0.107692 0)
(0.200835 -0.153687 0)
(0.193762 -0.217329 0)
(0.156064 -0.256373 0)
(0.0872806 -0.253746 0)
(0.0199667 -0.227947 0)
(-0.0119274 -0.204018 0)
(-0.0467693 -0.193881 0)
(0.0259916 0.0898852 0)
(0.0961784 0.0777302 0)
(0.181962 0.0783466 0)
(0.201829 0.125328 0)
(0.176115 0.197069 0)
(0.20202 0.075071 0)
(0.279489 -0.103775 0)
(0.299107 -0.000888841 0)
(0.272319 -0.0210786 0)
(0.320252 0.293583 0)
(0.243314 0.338396 0)
(0.229719 0.238244 0)
(0.236054 0.145658 0)
(0.239141 0.0828628 0)
(0.229063 0.0346448 0)
(0.222088 -0.0039064 0)
(0.217292 -0.0346915 0)
(0.202272 -0.0627368 0)
(0.168921 -0.0869698 0)
(0.126542 -0.112368 0)
(0.0963291 -0.132754 0)
(0.07857 -0.14192 0)
(0.0572277 -0.142624 0)
(0.0230242 -0.0524577 0)
(0.0786935 -0.0665822 0)
(0.128632 -0.00307163 0)
(0.139344 0.00902903 0)
(0.152372 0.0514271 0)
(0.229618 0.0343495 0)
(0.194272 0.0665412 0)
(0.160383 0.279264 0)
(0.0589341 0.417733 0)
(0.0523785 0.379749 0)
(0.104441 0.292723 0)
(0.150358 0.191782 0)
(0.184817 0.0924359 0)
(0.203189 0.0137361 0)
(0.207225 -0.037737 0)
(0.200417 -0.0774684 0)
(0.190587 -0.105968 0)
(0.176992 -0.12013 0)
(0.155321 -0.123387 0)
(0.128401 -0.132586 0)
(0.108859 -0.144538 0)
(0.0977264 -0.142639 0)
(0.0829598 -0.125523 0)
(0.0312467 -0.164419 0)
(0.0304817 -0.142308 0)
(0.0256205 0.0262223 0)
(0.00880555 0.186468 0)
(0.0323818 0.137072 0)
(0.0190651 0.118211 0)
(-0.0372862 0.0924145 0)
(-0.0185179 0.246168 0)
(-0.0228761 0.2524 0)
(0.0312059 0.247028 0)
(0.0884562 0.200797 0)
(0.1421 0.133929 0)
(0.175435 0.0697226 0)
(0.18671 0.0234984 0)
(0.184671 -0.0123793 0)
(0.176049 -0.0457093 0)
(0.161987 -0.0703913 0)
(0.145076 -0.0807137 0)
(0.126453 -0.0850675 0)
(0.109559 -0.10594 0)
(0.0959575 -0.128374 0)
(0.084767 -0.128888 0)
(0.0662104 -0.106887 0)
(-0.0246685 -0.0211095 0)
(-0.063658 0.0337399 0)
(-0.0672189 0.104314 0)
(-0.0503971 0.150916 0)
(-0.0465264 0.0826729 0)
(-0.0496673 0.0842426 0)
(-0.0644073 0.112904 0)
(-0.0479516 0.19176 0)
(-0.00593565 0.205362 0)
(0.0467294 0.185826 0)
(0.0986145 0.150466 0)
(0.139551 0.10357 0)
(0.160412 0.0587687 0)
(0.165533 0.0210928 0)
(0.162659 -0.0084725 0)
(0.154604 -0.0345297 0)
(0.140381 -0.0549444 0)
(0.123701 -0.063479 0)
(0.10985 -0.0708481 0)
(0.0974068 -0.093336 0)
(0.081551 -0.116157 0)
(0.0650386 -0.112764 0)
(0.0412256 -0.0800529 0)
(-0.0240752 -0.0808562 0)
(-0.0492897 -0.0424213 0)
(-0.0585634 0.0163909 0)
(-0.0448103 0.0728777 0)
(-0.0354058 0.0751238 0)
(-0.0395028 0.0922354 0)
(-0.0422544 0.119782 0)
(-0.0235508 0.162698 0)
(0.0210491 0.159998 0)
(0.0628496 0.142217 0)
(0.10009 0.114438 0)
(0.12654 0.0802901 0)
(0.140325 0.0473839 0)
(0.144517 0.0189104 0)
(0.142255 -0.00488379 0)
(0.135259 -0.0246073 0)
(0.123931 -0.0399932 0)
(0.111257 -0.049109 0)
(0.10058 -0.0593282 0)
(0.0883712 -0.0787064 0)
(0.0693859 -0.098082 0)
(0.0485055 -0.0894355 0)
(0.0233314 -0.0454774 0)
(-0.0180261 0.00511129 0)
(-0.0380377 0.0175527 0)
(-0.0454168 0.0409239 0)
(-0.0332373 0.0771743 0)
(-0.0246098 0.0843273 0)
(-0.022639 0.0951859 0)
(-0.0172088 0.109394 0)
(0.00421161 0.127943 0)
(0.0381956 0.122162 0)
(0.0680048 0.107851 0)
(0.0926137 0.0875863 0)
(0.109827 0.0641093 0)
(0.119392 0.0406258 0)
(0.122452 0.0189996 0)
(0.120662 -8.16346e-05 0)
(0.115449 -0.0160485 0)
(0.107965 -0.0286952 0)
(0.0998152 -0.0384282 0)
(0.0917027 -0.0485786 0)
(0.080645 -0.0629725 0)
(0.0622921 -0.0774979 0)
(0.0435506 -0.0666063 0)
(0.0275758 -0.015454 0)
(-0.0095747 0.0135556 0)
(-0.0217728 0.0246096 0)
(-0.0299019 0.0432855 0)
(-0.023501 0.0684253 0)
(-0.0160009 0.0778036 0)
(-0.00923269 0.0856856 0)
(0.00149758 0.093798 0)
(0.0204034 0.100594 0)
(0.0437182 0.0952855 0)
(0.0640313 0.0843985 0)
(0.0805705 0.0698843 0)
(0.0923774 0.0530307 0)
(0.0993941 0.0354047 0)
(0.102065 0.0183374 0)
(0.101271 0.00271729 0)
(0.0979759 -0.0108575 0)
(0.0932069 -0.0222065 0)
(0.0877475 -0.0316609 0)
(0.0817531 -0.0403365 0)
(0.0735284 -0.0500045 0)
(0.0595691 -0.0595627 0)
(0.0439724 -0.0509953 0)
(0.0381013 -0.0068097 0)
(-0.00525511 0.0242558 0)
(-0.0131756 0.0314996 0)
(-0.0197394 0.0439017 0)
(-0.0162024 0.0611745 0)
(-0.00943253 0.0700028 0)
(-0.00124751 0.0763238 0)
(0.00980942 0.0805572 0)
(0.02468 0.0819248 0)
(0.0409403 0.077039 0)
(0.0554607 0.0685826 0)
(0.0675322 0.0575623 0)
(0.0765737 0.0446969 0)
(0.08238 0.0309719 0)
(0.0851797 0.0172578 0)
(0.0853539 0.00425102 0)
(0.0834679 -0.00753235 0)
(0.0802386 -0.0177822 0)
(0.0761667 -0.0265967 0)
(0.0714507 -0.0341947 0)
(0.0655234 -0.0409418 0)
(0.0561786 -0.0463699 0)
(0.0443705 -0.0405852 0)
(0.0426777 -0.0080856 0)
(-0.0032278 0.0311196 0)
(-0.00869898 0.0372079 0)
(-0.0136142 0.0456063 0)
(-0.0116253 0.0566646 0)
(-0.00609453 0.0631894 0)
(0.00146334 0.0671776 0)
(0.0111456 0.0688836 0)
(0.0227726 0.0679917 0)
(0.0349532 0.063595 0)
(0.0461993 0.0567113 0)
(0.0558846 0.0479049 0)
(0.0635295 0.0376812 0)
(0.0687924 0.0267021 0)
(0.071786 0.0155673 0)
(0.0726207 0.00474529 0)
(0.0716328 -0.00534994 0)
(0.0692746 -0.0144162 0)
(0.0659141 -0.022419 0)
(0.0617915 -0.0292696 0)
(0.0569216 -0.0346657 0)
(0.050739 -0.0377312 0)
(0.0429035 -0.0337518 0)
(0.0431622 -0.0114894 0)
(-0.00248941 0.0362945 0)
(-0.00664426 0.0417364 0)
(-0.0104545 0.0471102 0)
(-0.00935007 0.0535362 0)
(-0.00514913 0.0573375 0)
(0.00121484 0.0591574 0)
(0.0093551 0.0591105 0)
(0.0187625 0.0570885 0)
(0.0285647 0.0529041 0)
(0.0378829 0.0469905 0)
(0.0461433 0.0397043 0)
(0.0528883 0.0314086 0)
(0.0577861 0.0225308 0)
(0.0608321 0.0134904 0)
(0.0620672 0.00458186 0)
(0.0616705 -0.00390758 0)
(0.0599301 -0.0117287 0)
(0.0571231 -0.018799 0)
(0.0534724 -0.0249565 0)
(0.0491789 -0.0297959 0)
(0.0444558 -0.0323235 0)
(0.0393271 -0.0298761 0)
(0.0413281 -0.0154425 0)
(-0.00237768 0.0406187 0)
(-0.00598327 0.0454426 0)
(-0.00921399 0.0484175 0)
(-0.00867082 0.0514089 0)
(-0.00564268 0.0526697 0)
(-0.000419914 0.0525245 0)
(0.00641609 0.0510108 0)
(0.0143056 0.0481286 0)
(0.022608 0.0439275 0)
(0.0306562 0.0386461 0)
(0.0379052 0.0325087 0)
(0.0439273 0.0257402 0)
(0.0484333 0.0185893 0)
(0.0513712 0.0113094 0)
(0.0528005 0.00403069 0)
(0.0528138 -0.00303185 0)
(0.0515891 -0.00966228 0)
(0.0493315 -0.0157734 0)
(0.0462228 -0.0212116 0)
(0.0424873 -0.0256427 0)
(0.0385007 -0.0283503 0)
(0.0345971 -0.0276702 0)
(0.0366615 -0.0195585 0)
(-0.00248488 0.0447842 0)
(-0.00600134 0.0489284 0)
(-0.00915695 0.0498151 0)
(-0.00914016 0.0500468 0)
(-0.00705443 0.04907 0)
(-0.00275947 0.0470764 0)
(0.00306357 0.0441508 0)
(0.00990032 0.0404548 0)
(0.0171978 0.0361198 0)
(0.0243515 0.031303 0)
(0.0308388 0.0261124 0)
(0.0362652 0.0206265 0)
(0.0403885 0.0149294 0)
(0.0431367 0.00912762 0)
(0.0446102 0.00323679 0)
(0.0448682 -0.00257632 0)
(0.0440293 -0.00812801 0)
(0.0422595 -0.0133338 0)
(0.0397128 -0.0180629 0)
(0.036583 -0.0220815 0)
(0.0331904 -0.0249391 0)
(0.0299794 -0.0257319 0)
(0.0305538 -0.0223042 0)
(-0.00269963 0.0491861 0)
(-0.00644966 0.052583 0)
(-0.00986223 0.0514819 0)
(-0.0103082 0.049368 0)
(-0.00895254 0.0463084 0)
(-0.00546121 0.0424997 0)
(-0.000381711 0.0381672 0)
(0.00577727 0.0336458 0)
(0.0124138 0.0291231 0)
(0.0189484 0.0246939 0)
(0.0248767 0.0203429 0)
(0.0298348 0.0159922 0)
(0.0336173 0.0115685 0)
(0.0361524 0.00704415 0)
(0.0375695 0.00236004 0)
(0.0379215 -0.00236761 0)
(0.037316 -0.00697985 0)
(0.0359065 -0.0113913 0)
(0.0338301 -0.0154915 0)
(0.0312585 -0.0191204 0)
(0.0284527 -0.0219918 0)
(0.0257955 -0.0236043 0)
(0.0250605 -0.0229211 0)
(-0.00295085 0.0540016 0)
(-0.00711468 0.0565915 0)
(-0.0109439 0.0535789 0)
(-0.0118734 0.0493136 0)
(-0.0111129 0.0441938 0)
(-0.00817204 0.038515 0)
(-0.00360039 0.0327592 0)
(0.00212604 0.0273843 0)
(0.00834363 0.0226647 0)
(0.0144528 0.0186032 0)
(0.0199712 0.0150448 0)
(0.0245636 0.0117503 0)
(0.0280545 0.00849382 0)
(0.0303829 0.00512773 0)
(0.0316832 0.00151571 0)
(0.0320191 -0.00225931 0)
(0.0315138 -0.00606187 0)
(0.0303189 -0.00980286 0)
(0.0285734 -0.0133831 0)
(0.026437 -0.0166823 0)
(0.0241134 -0.0195211 0)
(0.0219104 -0.0215715 0)
(0.020708 -0.0222586 0)
(-0.00324366 0.059335 0)
(-0.00788697 0.0610419 0)
(-0.0121622 0.0561543 0)
(-0.0135309 0.0497585 0)
(-0.0132267 0.0425621 0)
(-0.0106821 0.0349435 0)
(-0.00642496 0.0276964 0)
(-0.000969511 0.0214648 0)
(0.00495704 0.0165708 0)
(0.0107418 0.0128889 0)
(0.0159402 0.0101064 0)
(0.020246 0.00782089 0)
(0.0235006 0.00566456 0)
(0.0256425 0.00337666 0)
(0.0268089 0.00075356 0)
(0.0270815 -0.00215966 0)
(0.0265902 -0.00525074 0)
(0.0254986 -0.00842091 0)
(0.0239458 -0.0115733 0)
(0.0220805 -0.0146186 0)
(0.0200742 -0.0174354 0)
(0.0181696 -0.0197758 0)
(0.0168688 -0.0212096 0)
(-0.00355459 0.0652091 0)
(-0.00867708 0.0659478 0)
(-0.0133573 0.059152 0)
(-0.0151364 0.0506568 0)
(-0.0151407 0.0412393 0)
(-0.0128543 0.0316237 0)
(-0.00878734 0.0228492 0)
(-0.00356607 0.0158169 0)
(0.00208034 0.0107674 0)
(0.00757126 0.0074745 0)
(0.0124953 0.00545057 0)
(0.0165733 0.00413268 0)
(0.0196571 0.00302479 0)
(0.0216774 0.00176072 0)
(0.0227435 8.34185e-05 0)
(0.0229462 -0.00202341 0)
(0.0224332 -0.00446856 0)
(0.0213764 -0.0071397 0)
(0.0199167 -0.00993157 0)
(0.0181946 -0.0127702 0)
(0.0163498 -0.01557 0)
(0.0145745 -0.0181264 0)
(0.0132094 -0.0200428 0)
(-0.00386272 0.0716132 0)
(-0.00945713 0.0713241 0)
(-0.0145181 0.0625057 0)
(-0.0166238 0.0518051 0)
(-0.0168039 0.0401983 0)
(-0.0146532 0.0284743 0)
(-0.0107419 0.0181977 0)
(-0.00581586 0.0104437 0)
(-0.000525026 0.00525633 0)
(0.00466399 0.0023413 0)
(0.00934269 0.00103123 0)
(0.0132461 0.000621555 0)
(0.0162274 0.000513047 0)
(0.0182013 0.000237265 0)
(0.0192448 -0.000514525 0)
(0.0194203 -0.00183981 0)
(0.0188905 -0.00367539 0)
(0.0178428 -0.00589064 0)
(0.0164227 -0.00836138 0)
(0.0147585 -0.0110151 0)
(0.0129719 -0.0137881 0)
(0.0112202 -0.016506 0)
(0.00975094 -0.0187676 0)
(-0.00414253 0.0785189 0)
(-0.0101903 0.0771372 0)
(-0.0156307 0.0662055 0)
(-0.018027 0.0531682 0)
(-0.0182829 0.0391867 0)
(-0.0161724 0.025495 0)
(-0.0123603 0.0137912 0)
(-0.00785943 0.00545677 0)
(-0.00303212 0.000104894 0)
(0.00181135 -0.00251093 0)
(0.00623733 -0.00319513 0)
(0.0100022 -0.00278942 0)
(0.0129514 -0.00197724 0)
(0.0149927 -0.00129556 0)
(0.016096 -0.0011309 0)
(0.0163151 -0.0016694 0)
(0.015813 -0.00289289 0)
(0.0147818 -0.0046588 0)
(0.0133839 -0.00681821 0)
(0.0117434 -0.00928417 0)
(0.00995844 -0.012008 0)
(0.00816249 -0.0148299 0)
(0.00657396 -0.017352 0)
(-0.00438387 0.0858811 0)
(-0.0108498 0.0833531 0)
(-0.0166665 0.0702382 0)
(-0.0193578 0.0547208 0)
(-0.0196624 0.0381616 0)
(-0.0174661 0.0223859 0)
(-0.0138537 0.00983209 0)
(-0.00982043 0.000993361 0)
(-0.00550998 -0.00465671 0)
(-0.00103372 -0.00706938 0)
(0.00309965 -0.00722202 0)
(0.00671369 -0.0061229 0)
(0.00967022 -0.00450366 0)
(0.0118343 -0.00293255 0)
(0.0131033 -0.00186487 0)
(0.0134781 -0.00158647 0)
(0.0130814 -0.00215855 0)
(0.0121053 -0.00345807 0)
(0.0107365 -0.00529441 0)
(0.0091078 -0.00755483 0)
(0.0073079 -0.0101943 0)
(0.00545621 -0.0130732 0)
(0.00374862 -0.0157892 0)
(-0.00453742 0.0936161 0)
(-0.0113381 0.0899334 0)
(-0.0174873 0.074583 0)
(-0.020395 0.0564059 0)
(-0.0207568 0.0371336 0)
(-0.0186962 0.0193581 0)
(-0.0155005 0.00618222 0)
(-0.0118826 -0.00298116 0)
(-0.00777408 -0.00901217 0)
(-0.00371915 -0.0113317 0)
(2.45246e-05 -0.0110694 0)
(0.00337941 -0.00942394 0)
(0.00630675 -0.00712295 0)
(0.00862384 -0.00475173 0)
(0.0101453 -0.0028012 0)
(0.0107838 -0.00166732 0)
(0.0105855 -0.00153151 0)
(0.00972321 -0.0023162 0)
(0.00841893 -0.00380165 0)
(0.00682478 -0.0058293 0)
(0.00502124 -0.00834743 0)
(0.00311743 -0.0112344 0)
(0.00132061 -0.014101 0)
(-0.00452937 0.101544 0)
(-0.0114877 0.0967808 0)
(-0.017818 0.0791597 0)
(-0.0207903 0.058158 0)
(-0.0212963 0.0363339 0)
(-0.019755 0.0168425 0)
(-0.0170536 0.00282048 0)
(-0.0134596 -0.00688554 0)
(-0.00943049 -0.0131479 0)
(-0.00583365 -0.0150911 0)
(-0.00260214 -0.0144636 0)
(0.000331891 -0.0124787 0)
(0.00300131 -0.00977359 0)
(0.00538077 -0.0067737 0)
(0.00716887 -0.00402793 0)
(0.00814443 -0.00202676 0)
(0.0082437 -0.00110868 0)
(0.00758675 -0.00129469 0)
(0.00639504 -0.00237638 0)
(0.00486249 -0.00413377 0)
(0.00308757 -0.00648755 0)
(0.00116842 -0.00933648 0)
(-0.000679188 -0.0123056 0)
(-0.0042721 0.109356 0)
(-0.0111006 0.103693 0)
(-0.0173478 0.0837769 0)
(-0.0202953 0.0599965 0)
(-0.0211122 0.0359985 0)
(-0.0201101 0.0149915 0)
(-0.0175556 -0.000460598 0)
(-0.0137363 -0.0109716 0)
(-0.0100921 -0.0167365 0)
(-0.00715089 -0.0182591 0)
(-0.00460103 -0.0173007 0)
(-0.00224755 -0.0151101 0)
(2.56773e-05 -0.0122219 0)
(0.00222601 -0.00890321 0)
(0.0041847 -0.00554886 0)
(0.0055154 -0.0027453 0)
(0.0059989 -0.000981849 0)
(0.00564023 -0.000467378 0)
(0.00463582 -0.00106262 0)
(0.00321506 -0.00250642 0)
(0.00151076 -0.00465052 0)
(-0.000384196 -0.00741129 0)
(-0.0022419 -0.010457 0)
(-0.00370314 0.116601 0)
(-0.0100122 0.11036 0)
(-0.0158667 0.0881998 0)
(-0.0186926 0.0620191 0)
(-0.0198987 0.0361574 0)
(-0.019043 0.0133234 0)
(-0.0162831 -0.00400492 0)
(-0.0125835 -0.0146846 0)
(-0.00972904 -0.0196851 0)
(-0.00756983 -0.0206557 0)
(-0.00580391 -0.0194102 0)
(-0.00416696 -0.0171474 0)
(-0.00246555 -0.0142785 0)
(-0.000624638 -0.0109356 0)
(0.00127651 -0.00727238 0)
(0.00288636 -0.00383928 0)
(0.0038071 -0.00124073 0)
(0.00384862 7.4499e-05 0)
(0.00311143 7.18217e-05 0)
(0.00185089 -0.000992896 0)
(0.000268478 -0.00288456 0)
(-0.00155845 -0.00552132 0)
(-0.00337329 -0.00859962 0)
(-0.00281297 0.122754 0)
(-0.00816165 0.116398 0)
(-0.0133391 0.0922282 0)
(-0.01588 0.0641463 0)
(-0.0172468 0.0366064 0)
(-0.0159892 0.0113984 0)
(-0.0131592 -0.00738258 0)
(-0.0102113 -0.0175727 0)
(-0.00835417 -0.0217929 0)
(-0.00708259 -0.0221866 0)
(-0.00615423 -0.020692 0)
(-0.00530528 -0.0184547 0)
(-0.00429128 -0.0157599 0)
(-0.00298419 -0.0126333 0)
(-0.00139977 -0.00903996 0)
(0.000301396 -0.00525469 0)
(0.00162418 -0.00194141 0)
(0.00214615 0.000226678 0)
(0.00177568 0.000940542 0)
(0.000757421 0.000357505 0)
(-0.000665547 -0.00124015 0)
(-0.00237078 -0.00370969 0)
(-0.00409715 -0.00678954 0)
(-0.00167316 0.127302 0)
(-0.00565107 0.121415 0)
(-0.00985855 0.0956794 0)
(-0.0118344 0.0661287 0)
(-0.0127646 0.0369794 0)
(-0.0106089 0.00912122 0)
(-0.00865582 -0.0101661 0)
(-0.0068939 -0.0195227 0)
(-0.00611229 -0.0228979 0)
(-0.00579377 -0.022813 0)
(-0.00569306 -0.0211339 0)
(-0.0056353 -0.0189769 0)
(-0.00534116 -0.0165556 0)
(-0.00468831 -0.013801 0)
(-0.00360191 -0.010564 0)
(-0.00210631 -0.00682399 0)
(-0.00055236 -0.00306238 0)
(0.000474188 -8.40433e-05 0)
(0.000588379 0.00145493 0)