/*--------------------------------*- C++ -*----------------------------------*\
| =========                 |                                                 |
| \\      /  F ield         | OpenFOAM: The Open Source CFD Toolbox           |
|  \\    /   O peration     | Version:  2312                                  |
|   \\  /    A nd           | Website:  www.openfoam.com                      |
|    \\/     M anipulation  |                                                 |
\*---------------------------------------------------------------------------*/
FoamFile
{
    version     2.0;
    format      ascii;
    arch        "LSB;label=32;scalar=64";
    class       volScalarField;
    location    "3.25";
    object      alpha.galistan;
}
// * * * * * * * * * * * * * * * * * * * * * * * * * * * * * * * * * * * * * //

dimensions      [0 0 0 0 0 0 0];

internalField   nonuniform List<scalar> 
2268
(
1
1
1
1
1
1
1
1
1
1
1
1
1
1
1
1
1
1
1
1
0.999971
0.999947
0.999947
1
1
1
1
1
1
1
1
1
1
1
1
1
1
1
1
1
1
1
1
0.999997
0.999979
0.999972
1
1
1
1
0.999999
1
1
1
1
1
1
1
1
1
1
1
1
1
1
1
1
0.999999
0.999998
1
1
0.999999
1
0.999997
0.999999
1
1
1
1
1
1
1
1
1
1
1
1
1
1
1
1
1
1
1
0.999995
0.999988
0.999998
0.999998
0.999999
1
1
1
0.999876
0.999769
1
0.999985
0.99763
0.974407
0.957879
0.952224
0.952722
0.952718
0.965471
0.985775
0.991169
0.999752
0.999804
0.999954
0.999938
0.999879
0.999756
0.999768
0.999864
0.98724
0.933634
0.865606
0.766986
0.65241
0.528935
0.409757
0.332096
0.290441
0.28151
0.288806
0.286502
0.278154
0.288344
0.387432
0.988164
0.980332
0.95896
0.920922
0.857373
0.765229
0.670139
0.531928
0.382163
0.26463
0.149119
0.0665022
0.0239789
0.00559072
0.00015029
0.00101408
0.00130042
0.00117215
0.0056682
0.0173081
0.0295696
0.0429178
0.0454799
0.548312
0.482215
0.365716
0.258251
0.162995
0.10458
0.0378953
0.00381641
4.43831e-06
4.29745e-06
4.05091e-06
4.0943e-06
4.26738e-06
0.00041289
2.05559e-05
0.000114669
0.000551111
0.000537591
0.00961648
0.0200356
0.0220872
0.0426041
0.0451416
0.953734
0.950734
0.951885
0.95462
0.951729
0.945432
0.948484
0.949991
0.951906
0.952533
0.952533
0.952535
0.952531
0.952531
0.952529
0.952528
0.951576
0.950805
0.9508
0.961938
0.961938
0.961918
0.961269
0.943745
0.945473
0.943873
0.943819
0.926034
0.909266
0.90505
0.906658
0.879495
0.871101
0.850706
0.803662
0.761633
0.7687
0.780468
0.959445
0.938367
0.903437
0.7993
0.715008
0.666514
0.614071
0.546639
0.480038
0.461948
0.469199
0.483628
0.505941
0.497857
0.460052
0.404415
0.336837
0.268322
0.215568
0.63267
0.546444
0.491547
0.364144
0.185422
0.0756682
0.033214
0.0372831
0.0508849
0.0424874
0.0319264
0.0459537
0.0612954
0.0696523
0.0554225
0.0421073
0.0220261
0.00619842
0.00555247
0.127566
0.177169
0.0708063
0.00480481
0.00392924
0.00209245
0.00208203
0.00114911
0.0011494
0.00114911
0.00896741
0.020754
0.0179052
0.0124454
0.0110489
0.00894099
0.00833337
0.00661506
0.00555572
0.00600716
0.000129948
0.000141883
0.00462031
0.00777667
0.0122332
0.0160942
0.0155642
0.00563398
0.0011494
0.0115437
0.0285311
0.0286288
0.0234007
0.00923402
0.0041624
0.00604784
0.00942622
0.00936085
0.0135714
0.000131241
0.000129948
0.0125129
0.028263
0.0287799
0.0288785
0.0289111
0.0240525
0.005333
0.00977631
0.0140653
0.0164972
0.00829542
0.00416459
0.0041624
0.0041624
0.00949149
0.0112462
0.010486
0.000176251
0.00080661
0.012073
0.0151414
0.0165197
0.0182551
0.0287492
0.0287943
0.0180441
0.0174215
0.00723342
0.00773719
0.00883104
0.00760059
0.00587258
0.00687416
0.011749
0.012919
0.00613167
4.13065e-06
4.04636e-06
3.96298e-06
0.000158997
0.000174257
0.000138644
3.51078e-05
9.02618e-06
3.43985e-05
9.76364e-05
9.68785e-05
0.000215392
0.00208982
0.00201174
5.76574e-05
0.000279088
0.00269313
0.0227187
0.0239843
0.0204572
0.0110553
0.0246359
5.80218e-06
5.86705e-06
9.00829e-06
3.88077e-06
3.64318e-06
3.64212e-06
3.67572e-06
3.66646e-06
3.1359e-06
3.32609e-06
3.18512e-05
4.5768e-05
9.92148e-05
0.00156474
0.0042149
0.000953332
0.000243068
0.00136421
0.00309453
0.00243351
0.00232088
0.00251301
0.00422252
0.000198407
0.000213764
0.000219746
0.000145278
6.4635e-05
6.09105e-06
3.10547e-05
0.00159014
0.0012256
0.000295381
1.99582e-05
1.98909e-05
2.16975e-05
0.00219625
0.00421642
0.0014646
1.9889e-05
0.00036893
0.00407553
0.00564996
0.00317034
0.000644373
0.000326931
0.000400006
0.000400008
0.000399978
0.000345049
3.39655e-05
5.67264e-05
0.00212749
0.00287813
0.00236349
4.98429e-05
4.83573e-05
0.000171792
0.000386362
0.0022147
0.00370641
0.000109276
2.03511e-05
0.00157882
0.00518559
0.00692058
0.00691513
0.00651988
0.00122795
0.000229514
0.000103982
5.29731e-05
0.000268337
0.00213012
0.00349724
0.00347381
0.00168583
0.000136461
0.000125237
0.000274283
0.00027484
0.000301903
0.000505049
0.000451779
5.39633e-05
0.000647801
0.00201027
0.00225659
0.00176878
0.00116816
0.000349577
0.000347296
7.03836e-05
3.20776e-05
6.78145e-05
0.00230209
0.00375967
0.00375943
0.00186054
1.87398e-05
2.49631e-05
0.000121945
0.000134326
2.65731e-05
6.58477e-06
2.72154e-07
4.13044e-07
5.8435e-05
0.000316688
0.000333115
5.25684e-06
5.32613e-06
1.48834e-05
6.16562e-05
0.000197037
0.00012333
3.20948e-05
6.58381e-05
0.00169795
0.00299314
0.00201414
7.96087e-05
1.76528e-05
1.61651e-05
1.03431e-05
2.06848e-06
2.07742e-06
2.13048e-06
1.19393e-05
1.98242e-05
2.50744e-05
5.9715e-06
3.37274e-06
5.18864e-06
5.29292e-06
5.37964e-06
6.86204e-06
9.532e-06
0.000123979
0.000117998
4.831e-05
4.46773e-05
0.00010442
9.92607e-05
1.14921e-05
3.36457e-05
2.62844e-05
2.33861e-06
2.77931e-06
4.75022e-05
9.6888e-05
0.000105387
5.87218e-05
2.04957e-06
4.06036e-07
3.52353e-06
3.11867e-05
6.62272e-05
6.36495e-05
6.67465e-05
0.000244984
4.44687e-05
3.19655e-05
1.69753e-05
3.46089e-10
2.7097e-10
3.98075e-09
6.98432e-06
3.39274e-05
2.38807e-05
3.58122e-06
7.66574e-05
0.000128454
0.000128468
0.000128332
0.000101824
2.779e-06
2.00873e-07
2.15959e-07
5.74268e-06
7.04245e-05
0.000275874
0.000540954
0.000582877
1.7087e-09
2.14363e-09
6.51895e-09
3.23598e-09
2.67152e-09
6.67628e-10
2.43592e-07
9.13966e-06
1.4975e-05
2.72291e-06
6.34052e-06
3.90475e-05
8.00501e-05
0.000113991
4.89339e-05
2.51593e-07
2.6407e-07
2.72252e-07
2.96414e-07
5.61998e-05
0.00025917
0.000340921
0.00027059
1.72332e-09
1.27853e-09
2.54606e-09
6.78453e-09
3.17786e-09
7.17003e-10
5.05099e-09
4.8262e-09
2.88544e-07
1.12533e-06
5.8807e-07
1.09851e-08
5.62778e-07
2.87338e-06
4.34365e-06
4.43796e-06
3.31847e-06
1.36629e-06
3.12727e-07
6.10744e-08
2.13597e-06
4.91525e-06
1.66154e-06
1.70724e-09
1.27893e-09
1.4994e-09
5.35382e-09
4.00187e-09
2.26898e-09
8.34943e-09
4.78578e-09
3.9901e-08
1.03747e-07
6.5569e-08
1.17297e-08
4.5335e-09
1.06313e-08
5.20705e-09
4.46276e-09
4.40688e-09
4.75809e-08
4.41691e-08
9.27648e-08
2.59747e-07
7.51124e-09
5.92678e-09
1.56779e-09
1.12639e-09
1.33674e-09
5.99514e-09
1.62533e-08
1.51691e-08
4.05061e-09
3.57425e-09
3.56893e-09
2.08102e-08
7.69086e-09
4.38131e-09
4.38188e-09
4.39531e-09
4.42949e-09
4.40595e-09
5.67724e-09
7.92858e-09
1.71833e-08
3.52172e-08
7.80841e-08
3.41819e-07
5.15831e-07
1.45992e-09
1.01488e-09
1.54996e-09
7.92375e-09
3.76524e-08
1.65126e-08
1.01645e-07
3.55384e-09
3.558e-09
3.53952e-09
3.58241e-09
4.94797e-08
1.10741e-07
1.74029e-07
1.43428e-07
3.46579e-08
2.19434e-08
3.66014e-08
2.76132e-08
1.25735e-07
5.91698e-07
1.88579e-06
1.81402e-06
1.37176e-09
9.60549e-10
1.34264e-09
1.34337e-09
7.73887e-08
6.12251e-07
9.37437e-07
9.42152e-07
9.42566e-07
8.16043e-07
3.72786e-07
1.26375e-07
2.35502e-07
2.56533e-07
1.50739e-07
3.4768e-08
4.40694e-07
3.03559e-06
3.614e-06
3.61455e-06
3.6149e-06
2.55794e-06
5.54934e-07
1.28796e-09
9.60233e-10
2.74379e-09
3.61731e-08
1.92521e-07
5.77684e-07
6.01669e-07
5.37999e-07
3.32802e-07
3.69796e-07
2.19331e-07
3.82214e-08
3.77445e-08
6.78036e-07
3.78833e-06
4.30729e-06
4.31178e-06
3.92983e-06
2.1043e-06
9.15329e-07
5.14395e-07
1.12846e-07
2.67268e-07
1.27951e-09
1.01698e-09
2.70872e-09
9.03056e-09
3.62567e-08
4.30084e-08
2.42088e-08
8.33556e-09
6.87397e-08
4.17589e-08
6.29923e-09
5.4465e-09
2.23321e-07
1.82994e-06
2.06886e-06
1.15734e-06
5.29732e-08
1.06527e-09
1.06554e-09
1.12479e-09
8.85456e-10
9.02839e-10
3.92866e-07
1.27431e-09
7.96491e-10
1.71038e-09
2.00318e-09
2.63829e-09
2.60292e-09
3.44137e-09
5.81165e-09
5.82846e-09
5.03302e-09
4.23099e-09
5.23289e-09
1.49564e-07
2.41535e-07
2.05732e-08
1.03562e-09
1.13478e-09
3.5983e-09
3.79881e-09
2.4552e-09
1.01805e-09
8.62213e-10
1.46519e-07
1.30283e-09
7.02193e-10
1.65595e-09
2.36663e-09
3.08718e-09
4.18504e-09
6.88969e-09
9.88256e-09
9.59021e-09
8.81423e-09
5.77858e-09
3.04148e-09
1.84967e-09
9.57621e-10
9.57437e-10
1.03494e-09
1.31195e-09
2.14235e-09
2.22791e-09
1.62288e-09
1.06364e-09
8.62364e-10
8.32613e-10
1.32695e-09
4.8466e-10
1.21573e-09
1.91678e-09
2.61982e-09
3.35117e-09
4.56436e-09
5.94784e-09
6.30606e-09
6.30174e-09
4.87534e-09
2.65473e-09
1.63538e-09
1.24712e-09
1.01749e-09
1.00695e-09
1.02418e-09
1.01755e-09
9.49402e-10
8.56478e-10
7.88585e-10
8.02473e-10
1.04581e-09
1.3878e-09
3.33107e-10
6.14422e-10
9.0174e-10
1.19147e-09
1.59533e-09
1.94749e-09
2.21138e-09
2.18492e-09
2.3411e-09
2.31118e-09
1.84904e-09
1.46193e-09
1.08178e-09
7.42132e-10
4.85179e-10
4.18338e-10
4.34533e-10
4.40308e-10
3.91966e-10
3.71647e-10
4.25672e-10
5.46272e-10
1.4385e-09
2.45746e-10
2.7284e-10
3.84547e-10
4.02723e-10
4.52518e-10
5.43336e-10
6.20487e-10
7.30296e-10
7.92998e-10
8.52554e-10
8.03145e-10
6.8577e-10
5.2979e-10
3.72829e-10
2.39461e-10
1.7251e-10
1.61545e-10
1.68006e-10
1.69483e-10
1.56739e-10
1.64638e-10
2.30727e-10
1.55666e-09
1.97282e-10
1.43125e-10
1.73465e-10
1.79279e-10
1.7301e-10
1.66185e-10
1.85608e-10
2.2323e-10
2.75851e-10
2.96631e-10
2.87007e-10
2.49077e-10
1.98213e-10
1.42295e-10
9.2917e-11
6.6528e-11
6.18654e-11
6.3705e-11
6.58629e-11
6.34588e-11
6.81691e-11
8.8636e-11
1.60058e-09
1.97622e-10
7.20365e-11
6.85205e-11
6.58334e-11
6.23463e-11
6.63035e-11
7.26816e-11
7.72684e-11
8.06948e-11
8.15326e-11
7.81605e-11
7.08221e-11
5.74639e-11
4.16111e-11
2.81518e-11
2.12338e-11
1.99208e-11
2.08089e-11
2.3283e-11
2.54589e-11
2.74218e-11
3.47128e-11
1.68454e-09
1.96377e-10
3.24777e-11
2.24678e-11
1.75321e-11
1.65902e-11
1.83079e-11
1.90552e-11
1.8949e-11
1.89494e-11
1.80075e-11
1.71192e-11
1.59407e-11
1.409e-11
1.02888e-11
7.37277e-12
6.21327e-12
6.17431e-12
6.62117e-12
7.77465e-12
9.06951e-12
1.08056e-11
1.38114e-11
1.74105e-09
2.34824e-10
2.71177e-11
1.75159e-11
1.37344e-11
1.24376e-11
1.10583e-11
8.76378e-12
6.26196e-12
5.02616e-12
3.92044e-12
3.27822e-12
3.061e-12
2.83938e-12
2.43625e-12
1.77471e-12
1.63826e-12
1.70887e-12
1.91656e-12
2.43219e-12
3.00611e-12
4.01871e-12
5.33016e-12
1.86534e-09
2.78836e-10
2.64932e-11
1.94497e-11
1.76084e-11
1.85621e-11
1.83079e-11
1.45997e-11
9.83392e-12
6.92382e-12
3.99353e-12
2.04457e-12
1.04869e-12
6.38594e-13
5.0168e-13
4.26428e-13
3.91698e-13
4.26241e-13
5.08193e-13
6.94729e-13
9.28676e-13
1.33374e-12
1.91339e-12
1.96048e-09
3.51019e-10
3.46469e-11
2.4839e-11
2.96553e-11
3.73158e-11
3.90728e-11
3.11473e-11
2.14195e-11
1.5684e-11
8.27467e-12
3.86573e-12
1.53751e-12
5.74914e-13
2.09116e-13
1.05955e-13
8.64611e-14
9.41432e-14
1.19562e-13
1.78372e-13
2.55893e-13
4.22555e-13
6.45929e-13
2.07237e-09
4.32074e-10
4.76426e-11
4.55386e-11
7.72213e-11
1.04235e-10
1.13809e-10
1.00345e-10
6.676e-11
3.32497e-11
1.6429e-11
7.68443e-12
3.04449e-12
1.10562e-12
3.24505e-13
8.40588e-14
2.73238e-14
1.92674e-14
2.4868e-14
4.07826e-14
6.78923e-14
1.1901e-13
2.03513e-13
2.15365e-09
5.39912e-10
7.39363e-11
8.74403e-11
2.07478e-10
3.04465e-10
3.35664e-10
2.0514e-10
1.36772e-10
5.88505e-11
2.90795e-11
1.36822e-11
5.48615e-12
2.03706e-12
6.20986e-13
1.59674e-13
3.48556e-14
8.21914e-15
5.16602e-15
8.30382e-15
1.5195e-14
3.36871e-14
6.14631e-14
2.27376e-09
7.08961e-10
1.40012e-10
2.00652e-10
5.18959e-10
7.72753e-10
7.98467e-10
4.90884e-10
2.45908e-10
1.10844e-10
4.80655e-11
2.2235e-11
9.08506e-12
3.39253e-12
1.12017e-12
3.05011e-13
6.84816e-14
1.2639e-14
2.51167e-15
1.78325e-15
3.70565e-15
8.52114e-15
1.81076e-14
2.40713e-09
9.13914e-10
2.18941e-10
3.89059e-10
9.57514e-10
1.22536e-09
1.25403e-09
8.54364e-10
4.19857e-10
1.65207e-10
7.10231e-11
3.18581e-11
1.36395e-11
5.26143e-12
1.82802e-12
5.35353e-13
1.27913e-13
2.41389e-14
3.81716e-15
6.77381e-16
6.97152e-16
2.32007e-15
5.44758e-15
2.43696e-09
1.22735e-09
3.84771e-10
4.79998e-10
1.05931e-09
1.40886e-09
1.63041e-09
1.15102e-09
5.48959e-10
2.18963e-10
9.06434e-11
3.9025e-11
1.75361e-11
6.61346e-12
2.39339e-12
7.87336e-13
2.17007e-13
4.40785e-14
7.76641e-15
1.00372e-15
2.84925e-16
5.7666e-16
1.86959e-15
2.4196e-09
1.50389e-09
5.96243e-10
5.34771e-10
9.72113e-10
1.5642e-09
1.97e-09
1.51558e-09
6.13423e-10
2.4426e-10
1.00542e-10
4.19423e-11
1.83094e-11
7.35681e-12
2.73974e-12
9.26005e-13
2.85699e-13
7.10732e-14
1.31266e-14
1.87415e-15
2.58769e-16
1.81413e-16
5.72243e-16
2.22115e-09
1.60013e-09
8.56079e-10
5.50403e-10
7.63028e-10
1.5129e-09
1.99021e-09
1.63082e-09
6.12957e-10
2.47649e-10
9.91214e-11
4.05023e-11
1.76706e-11
6.99071e-12
2.63426e-12
9.43863e-13
3.15627e-13
8.7056e-14
1.83502e-14
2.89455e-15
3.93423e-16
6.85383e-17
1.91685e-16
1.89564e-09
1.45518e-09
8.45696e-10
5.30135e-10
6.73454e-10
1.29148e-09
1.9305e-09
1.36796e-09
4.48403e-10
1.85407e-10
8.24177e-11
3.42129e-11
1.49945e-11
6.01681e-12
2.18217e-12
7.82149e-13
2.74341e-13
8.52749e-14
2.08432e-14
3.67718e-15
5.00654e-16
4.74394e-17
5.40261e-17
1.69271e-09
1.13153e-09
6.98358e-10
4.82944e-10
5.98152e-10
1.22546e-09
1.63374e-09
9.80035e-10
3.29598e-10
1.40058e-10
5.8973e-11
2.50387e-11
1.12814e-11
4.42851e-12
1.53163e-12
5.21806e-13
1.85188e-13
6.2042e-14
1.75055e-14
3.55708e-15
5.43867e-16
4.42317e-17
1.7614e-17
1.70583e-09
9.33595e-10
5.16085e-10
4.80687e-10
7.27272e-10
1.12096e-09
1.07495e-09
6.15348e-10
2.17261e-10
8.00853e-11
3.60178e-11
1.56301e-11
7.15989e-12
2.77751e-12
9.03356e-13
2.79266e-13
9.17971e-14
3.15828e-14
9.86135e-15
2.42629e-15
4.04979e-16
4.3929e-17
5.61066e-18
2.14295e-09
1.09611e-09
5.32024e-10
6.58152e-10
8.84134e-10
9.24341e-10
6.80409e-10
3.3246e-10
1.05125e-10
3.64337e-11
1.74398e-11
7.75515e-12
3.72673e-12
1.44341e-12
4.35528e-13
1.16826e-13
3.26999e-14
9.98581e-15
3.41798e-15
1.07525e-15
2.35138e-16
2.48248e-17
2.37383e-18
4.1684e-09
1.76943e-09
1.13693e-09
1.01858e-09
8.41203e-10
5.30984e-10
2.60049e-10
1.04346e-10
2.64564e-11
1.01839e-11
6.09642e-12
3.04872e-12
1.54442e-12
5.99343e-13
1.71613e-13
3.83913e-14
8.11533e-15
1.91289e-15
6.28866e-16
3.03825e-16
7.7153e-17
1.14989e-17
1.24669e-18
5.19102e-09
3.43214e-09
1.52645e-09
9.06843e-10
4.35208e-10
1.57215e-10
5.23861e-11
1.40333e-11
3.68211e-12
1.95691e-12
1.52356e-12
7.83399e-13
4.42919e-13
1.75037e-13
4.682e-14
8.77525e-15
1.29308e-15
1.88528e-16
6.163e-17
5.15649e-17
1.86353e-17
4.50346e-18
6.76417e-19
4.84109e-09
2.7575e-09
1.05164e-09
3.88011e-10
1.13466e-10
3.16195e-11
6.37458e-12
9.53545e-13
2.15359e-13
1.43217e-13
1.79589e-13
1.04568e-13
6.47912e-14
2.57012e-14
6.42066e-15
9.73889e-16
9.31621e-17
7.65668e-18
3.19188e-18
5.36631e-18
4.09173e-18
1.389e-18
3.13331e-19
0.0419275
0.0419526
0.0284865
0.000612443
0.00545811
0.00384548
0.00157316
0.00122282
0.000326552
0.000327013
0.000332681
0.000299767
0.000338041
0.00144708
0.00291876
0.00304035
0.00125016
0.00528606
0.00528038
0.0052659
0.0010737
0.00105533
0.00108011
0.000880047
2.47564e-05
8.91422e-05
0.00048734
0.00116739
0.000303446
0.000133026
0.000134134
0.000992054
0.000582898
0.000460418
0.000179391
0.00171077
4.99173e-05
0.000365839
0.00470031
0.00554447
0.000111132
0.0012424
0.00133882
0.00368326
1.08664e-06
1.85902e-05
3.30244e-05
1.15977e-05
3.79526e-07
1.01439e-08
1.02938e-08
2.57903e-08
7.19297e-07
1.71408e-09
9.69726e-10
1.07078e-09
1.22913e-07
1.15586e-07
1.54059e-07
1.04037e-07
1.52407e-06
1.56754e-06
1.16384e-06
1.03738e-07
1.56728e-06
1.5685e-06
1.56729e-06
1.13839e-06
3.14539e-07
2.84517e-07
5.70333e-07
1.32803e-06
8.3013e-10
3.39436e-09
2.69738e-08
2.22517e-07
2.81623e-09
4.9683e-09
9.21666e-09
7.40154e-09
1.15209e-09
2.44738e-09
3.66168e-09
5.23659e-09
3.61479e-10
4.18694e-10
7.96183e-10
1.07448e-09
1.2376e-10
1.46561e-10
2.0624e-10
2.4041e-10
4.63792e-11
4.95969e-11
6.08762e-11
7.51308e-11
1.70235e-11
1.9351e-11
2.40688e-11
2.60907e-11
6.90794e-12
7.72186e-12
8.8291e-12
1.05872e-11
2.63822e-12
2.96204e-12
3.71315e-12
3.95262e-12
9.1195e-13
1.10714e-12
1.30306e-12
1.59984e-12
3.12601e-13
3.86448e-13
5.03072e-13
5.70384e-13
1.05078e-13
1.38394e-13
1.75417e-13
2.29574e-13
3.55069e-14
4.83239e-14
7.24155e-14
9.06178e-14
1.20852e-14
2.03754e-14
2.91149e-14
4.4418e-14
4.44363e-15
8.00246e-15
1.39458e-14
2.06201e-14
1.88815e-15
3.40596e-15
6.16066e-15
1.10463e-14
5.69059e-16
1.15772e-15
2.41482e-15
4.11746e-15
2.2358e-16
4.13472e-16
9.16472e-16
1.92711e-15
5.53956e-17
1.25817e-16
3.13792e-16
6.08067e-16
1.65616e-17
3.31463e-17
7.81312e-17
1.89981e-16
2.81999e-18
7.08442e-18
1.75956e-17
3.69156e-17
5.97391e-19
1.30323e-18
3.05673e-18
8.69318e-18
1.22424e-19
2.52316e-19
6.30574e-19
1.69775e-18
3.13234e-20
4.4099e-20
1.24074e-19
2.81678e-19
0.000895311
0.00012628
0.000283071
0.00462416
0.00748241
0.00507362
0.00419304
0.00411044
0.0268308
0.0277157
0.0168781
0.00722514
0.00988485
0.0132013
0.0132012
0.0132032
0.013203
0.0132053
0.0114506
0.000187378
0.000127289
0.00118992
0.00191971
0.00172306
0.00179235
0.00200578
0.00191531
0.00334651
0.0156164
0.0135608
0.00790201
0.0114095
0.0121479
0.0056004
0.00482422
0.00816059
0.00768992
0.00765687
0.000282797
0.000278275
0.00124388
0.00364452
0.0074668
0.0116341
0.011632
0.00360729
0.000718931
0.00186774
0.00387021
0.00457136
0.00327096
0.0025799
0.00255443
0.00424564
0.00344422
0.00343912
0.00601767
0.00223139
0.00160214
0.0033888
0.00985159
0.0116304
0.0116332
0.0116017
0.00340375
0.000716693
0.000710192
0.00138525
0.00126285
0.00126413
0.00149459
0.00675332
0.0120154
0.00604152
0.00253969
0.00368232
0.00452897
0.00266122
0.00166529
0.00321153
0.00910605
0.00968475
0.00732181
0.00459894
0.000948751
0.000707118
0.000701688
0.001291
0.00210427
0.00192544
0.00858688
0.0182574
0.0141667
0.00256449
0.0019312
0.000423678
8.82641e-05
3.06955e-05
1.27928e-05
2.38967e-06
2.43361e-06
2.37659e-06
0.000598198
0.00164999
0.00093593
0.000373803
0.00137194
0.00144199
0.000937856
0.0090509
0.0182574
0.0182574
0.00428013
0.0012369
0.0018555
0.00123392
0.000193536
2.25911e-05
2.47224e-06
3.34894e-06
3.2717e-06
4.47538e-06
8.36159e-05
0.000228531
0.00041268
0.00100048
0.00107222
0.000937727
0.00160783
0.0160249
0.0182574
0.00720777
0.000219299
0.00467131
0.00541714
0.000959757
0.000157174
3.0735e-06
5.82777e-05
0.000716934
0.00169936
0.00280418
0.00340077
0.00386452
0.00387673
0.00388429
0.00261543
0.000480901
0.00498259
0.01387
0.0084783
0.000215754
0.00503393
0.00554175
0.00498619
0.000856466
0.000297877
0.00155041
0.00332324
0.00462607
0.00480401
0.00475917
0.00404659
0.00318169
0.001896
0.000907844
0.000413449
2.24062e-05
0.000782163
0.00227321
0.000454331
0.00554352
0.00554196
0.00536805
0.00269721
0.00161325
0.00206135
0.00181802
0.000975811
0.000681311
0.000163529
1.24004e-06
5.17091e-07
1.79525e-07
1.78383e-07
1.80535e-07
6.0994e-07
3.67189e-07
8.08242e-07
0.000215738
0.00484655
0.00252462
0.000830418
0.000617452
0.000661838
0.000175306
1.81848e-15
9.39518e-18
1.79806e-12
1.02416e-10
5.6509e-07
7.87946e-06
1.73438e-05
1.70898e-05
8.09884e-06
2.65583e-06
3.50656e-07
1.53531e-07
1.6791e-07
1.84403e-13
1.83426e-13
1.84403e-13
4.44923e-08
7.87286e-07
1.1415e-10
2.97514e-09
3.13613e-07
5.7545e-07
6.85441e-07
4.0902e-06
2.37103e-05
2.81891e-05
2.81896e-05
2.798e-05
2.70328e-05
5.9921e-06
5.73026e-08
6.30538e-08
4.56854e-09
2.04622e-09
7.82294e-11
1.40142e-10
1.47338e-10
8.04129e-10
6.10551e-10
4.33771e-07
2.13873e-06
3.95905e-06
4.03073e-06
3.5441e-06
4.70799e-06
7.89124e-06
4.18159e-06
4.45886e-06
1.25932e-05
6.25595e-06
5.50359e-08
2.56862e-09
2.00778e-09
2.17997e-10
3.34747e-09
3.59133e-08
4.41254e-08
1.41795e-08
3.31126e-07
1.13962e-06
1.51068e-06
1.2173e-06
5.21887e-07
5.23441e-07
5.21013e-07
1.05642e-06
5.08001e-07
5.27662e-06
5.9011e-06
1.19608e-07
-2.71153e-12
-5.19733e-12
2.39471e-13
3.02788e-08
7.56402e-08
8.20722e-08
3.16648e-08
1.7121e-08
4.76446e-07
7.33696e-07
5.24626e-07
5.22727e-07
6.44775e-07
1.76914e-06
2.65377e-06
3.06373e-07
3.06778e-07
3.1439e-07
2.77795e-07
1.70488e-07
2.88528e-07
2.66455e-07
1.39873e-07
4.99725e-08
4.91554e-08
2.48286e-08
1.66543e-08
5.18844e-07
1.03441e-06
8.17118e-07
5.22678e-07
5.24129e-07
3.33112e-06
3.8067e-06
1.08098e-06
3.06426e-07
4.75663e-07
5.90961e-07
1.2335e-06
1.25679e-06
2.65738e-07
1.17191e-07
2.85816e-08
2.86094e-08
6.18196e-08
3.56733e-07
7.32911e-07
1.02039e-06
1.2828e-06
1.04902e-06
5.29452e-07
9.32875e-07
3.80744e-06
1.91956e-06
4.25241e-07
3.71288e-06
1.43845e-05
1.32779e-06
1.18709e-06
2.02464e-07
2.88178e-08
2.8797e-08
2.48895e-07
6.01456e-07
6.02852e-07
2.41278e-07
2.89095e-07
1.25678e-06
1.28175e-06
9.25171e-07
4.68603e-07
1.48884e-06
3.24912e-06
1.64802e-06
1.81061e-05
1.92533e-05
2.8829e-07
2.05117e-07
7.12834e-08
2.89354e-08
1.39317e-07
3.35464e-07
2.77563e-07
1.04005e-07
2.96485e-08
1.21195e-07
2.98315e-07
5.28208e-07
5.5736e-07
9.92171e-08
2.19957e-07
8.70055e-06
3.26483e-06
1.92524e-05
1.9246e-05
3.97355e-09
1.19662e-08
2.0172e-08
3.09754e-08
3.76879e-08
1.71752e-08
1.36753e-09
3.49779e-09
2.02876e-08
5.44691e-09
4.4865e-09
4.56136e-09
2.88308e-08
1.17485e-08
1.22817e-06
1.16776e-05
1.67897e-05
1.92538e-05
1.58895e-05
3.27513e-09
3.62221e-09
3.42785e-09
4.14161e-09
3.02327e-09
1.2662e-09
1.2528e-09
2.51254e-09
2.34215e-09
4.1425e-09
7.90471e-09
7.20887e-09
3.86402e-09
1.59003e-09
5.62953e-10
1.6921e-05
1.6937e-05
7.2448e-06
2.07877e-06
6.40092e-10
6.14659e-10
4.89082e-10
4.98613e-10
5.78297e-10
6.48134e-10
5.40981e-10
3.47813e-10
3.17674e-10
7.41039e-10
1.38796e-09
1.55673e-09
6.08841e-09
1.56981e-09
5.67061e-10
3.0104e-06
1.03794e-05
8.54089e-07
2.13061e-06
2.11542e-10
2.20041e-10
1.97479e-10
1.68413e-10
1.71321e-10
1.69587e-10
1.84021e-10
2.46978e-10
3.53331e-10
5.98049e-10
5.99087e-10
2.29763e-09
1.42442e-08
1.60794e-08
1.50902e-08
1.47454e-07
8.25744e-09
8.61878e-07
4.45722e-06
7.3944e-11
8.17513e-11
7.59469e-11
6.22218e-11
6.95298e-11
9.68377e-11
1.47194e-10
2.40761e-10
3.84534e-10
6.12301e-10
1.07684e-09
3.70183e-09
1.20095e-08
1.81343e-08
1.81314e-08
8.29901e-09
8.25551e-09
1.75193e-06
7.92794e-06
2.89675e-11
3.2049e-11
3.38042e-11
3.54571e-11
4.47154e-11
7.19721e-11
1.26074e-10
2.22664e-10
3.64174e-10
5.72169e-10
1.07223e-09
2.10261e-09
5.28583e-09
1.24059e-08
1.26333e-08
8.25786e-09
8.25089e-09
9.3435e-07
7.92353e-06
1.09454e-11
1.3613e-11
1.63209e-11
1.99644e-11
2.82774e-11
4.70551e-11
8.42609e-11
1.4682e-10
2.45357e-10
4.01261e-10
7.49589e-10
1.51263e-09
2.33759e-09
5.6822e-09
2.00624e-08
1.07957e-08
8.24887e-09
8.24418e-09
7.10842e-06
4.5778e-12
5.8498e-12
7.55265e-12
1.02501e-11
1.55374e-11
2.59599e-11
4.71665e-11
8.41361e-11
1.44791e-10
2.35794e-10
3.90857e-10
7.3706e-10
7.58313e-10
5.18237e-10
3.5311e-08
3.6898e-08
8.25089e-09
8.85327e-09
7.99786e-07
1.72981e-12
2.4332e-12
3.25854e-12
4.71387e-12
7.4591e-12
1.26941e-11
2.32576e-11
4.27194e-11
7.58456e-11
1.26819e-10
1.98899e-10
3.06566e-10
3.21637e-10
2.3784e-10
2.97314e-08
1.12995e-07
9.89184e-08
1.28622e-08
8.35222e-08
6.88119e-13
9.74298e-13
1.41104e-12
2.12247e-12
3.44111e-12
5.92664e-12
1.09845e-11
2.10033e-11
3.78399e-11
6.77997e-11
1.11152e-10
1.66606e-10
2.38305e-10
2.37939e-10
1.0856e-09
1.3661e-07
1.94286e-07
1.26138e-07
1.09283e-07
2.75776e-13
4.28226e-13
6.66432e-13
1.08158e-12
1.8063e-12
3.15809e-12
5.60575e-12
1.0507e-11
1.9991e-11
3.87097e-11
7.03651e-11
1.11688e-10
1.90313e-10
3.32483e-10
3.88321e-10
2.81969e-08
1.94343e-07
1.8366e-07
1.13024e-07
1.20246e-13
2.1134e-13
3.77327e-13
6.64801e-13
1.18236e-12
2.0837e-12
3.71478e-12
6.62061e-12
1.19419e-11
1.98599e-11
3.42959e-11
7.03932e-11
1.36333e-10
2.48464e-10
3.15994e-10
3.16032e-10
6.64637e-08
1.84415e-07
8.24021e-08
6.18277e-14
1.2368e-13
2.45338e-13
4.69946e-13
8.89429e-13
1.63785e-12
2.94768e-12
5.17705e-12
8.88633e-12
1.45448e-11
2.41077e-11
4.32019e-11
8.9836e-11
1.7769e-10
4.27528e-10
1.08574e-09
7.2084e-09
6.19386e-08
4.92907e-08
3.3946e-14
7.50565e-14
1.60348e-13
3.37428e-13
6.83342e-13
1.34903e-12
2.52852e-12
4.66668e-12
8.32706e-12
1.44863e-11
2.43239e-11
4.01815e-11
7.0503e-11
1.59211e-10
3.6393e-10
1.21067e-09
2.48212e-09
6.23494e-09
4.07307e-09
1.74871e-14
4.34835e-14
9.9252e-14
2.24524e-13
4.92578e-13
1.02806e-12
2.07746e-12
4.14898e-12
7.86846e-12
1.44017e-11
2.5615e-11
4.43521e-11
7.61898e-11
1.66572e-10
3.53341e-10
9.21157e-10
1.68997e-09
1.51147e-09
1.51117e-09
8.85595e-15
2.18736e-14
5.42133e-14
1.31033e-13
3.09472e-13
7.03594e-13
1.56331e-12
3.34225e-12
6.79385e-12
1.32985e-11
2.48911e-11
4.9634e-11
9.86173e-11
1.84329e-10
3.668e-10
7.70211e-10
1.41028e-09
1.63257e-09
1.51086e-09
3.44963e-15
9.51888e-15
2.52266e-14
6.54467e-14
1.65891e-13
4.15718e-13
1.01065e-12
2.37468e-12
5.27526e-12
1.11437e-11
2.24141e-11
4.66033e-11
1.10939e-10
2.11845e-10
3.87989e-10
7.52276e-10
1.3616e-09
1.67876e-09
1.4627e-09
1.21937e-15
3.51437e-15
9.824e-15
2.70723e-14
7.50585e-14
2.08909e-13
5.62871e-13
1.47246e-12
3.64019e-12
8.46843e-12
1.86062e-11
3.93771e-11
9.40408e-11
2.30394e-10
4.22245e-10
7.19818e-10
1.31046e-09
1.6446e-09
1.12733e-09
3.52908e-16
1.08239e-15
3.16106e-15
9.28405e-15
2.87094e-14
8.88124e-14
2.68598e-13
7.83801e-13
2.1536e-12
5.5275e-12
1.32723e-11
3.04095e-11
6.66961e-11
1.87049e-10
4.1772e-10
7.16966e-10
1.13187e-09
1.50578e-09
8.99552e-10
9.12195e-17
2.70287e-16
8.25083e-16
2.64923e-15
8.96825e-15
3.09918e-14
1.05793e-13
3.51744e-13
1.09621e-12
3.18278e-12
8.47012e-12
2.06796e-11
4.49205e-11
1.17811e-10
3.21305e-10
6.42848e-10
9.62692e-10
1.10564e-09
6.86694e-10
1.89599e-17
5.74819e-17
1.82194e-16
6.30829e-16
2.3601e-15
9.29998e-15
3.65571e-14
1.38138e-13
4.8534e-13
1.55631e-12
4.5452e-12
1.20835e-11
2.97737e-11
6.81084e-11
1.8452e-10
4.32529e-10
7.10416e-10
8.45386e-10
4.22484e-10
3.23253e-18
1.01957e-17
3.359e-17
1.26825e-16
5.35857e-16
2.37632e-15
1.05699e-14
4.57226e-14
1.80879e-13
6.43426e-13
2.06284e-12
5.95623e-12
1.56086e-11
3.8152e-11
8.67158e-11
2.24827e-10
4.46903e-10
5.57025e-10
2.49936e-10
5.33728e-19
1.62268e-18
5.52724e-18
2.17887e-17
9.91636e-17
4.92273e-16
2.44764e-15
1.15372e-14
5.0008e-14
1.95553e-13
6.85474e-13
2.13978e-12
6.08663e-12
1.55567e-11
3.60609e-11
8.66587e-11
1.80962e-10
2.28338e-10
9.55054e-11
)
;

boundaryField
{
    leftWall
    {
        type            zeroGradient;
    }
    rightWall
    {
        type            zeroGradient;
    }
    lowerWall
    {
        type            zeroGradient;
    }
    atmosphere
    {
        type            inletOutlet;
        inletValue      uniform 0;
        value           nonuniform List<scalar> 
46
(
4.84109e-09
2.7575e-09
1.05164e-09
3.88011e-10
1.13466e-10
3.16195e-11
6.37458e-12
9.53545e-13
0
0
0
0
0
0
0
0
0
0
0
5.36631e-18
4.09173e-18
1.389e-18
3.13331e-19
3.13234e-20
4.4099e-20
1.24074e-19
2.81678e-19
0
0
0
0
0
0
0
0
0
0
0
0
0
0
0
0
1.80962e-10
2.28338e-10
9.55054e-11
)
;
    }
    defaultFaces
    {
        type            empty;
    }
}


// ************************************************************************* //
