/*--------------------------------*- C++ -*----------------------------------*\
| =========                 |                                                 |
| \\      /  F ield         | OpenFOAM: The Open Source CFD Toolbox           |
|  \\    /   O peration     | Version:  2312                                  |
|   \\  /    A nd           | Website:  www.openfoam.com                      |
|    \\/     M anipulation  |                                                 |
\*---------------------------------------------------------------------------*/
FoamFile
{
    version     2.0;
    format      ascii;
    arch        "LSB;label=32;scalar=64";
    class       volScalarField;
    location    "3.25";
    object      alpha.air;
}
// * * * * * * * * * * * * * * * * * * * * * * * * * * * * * * * * * * * * * //

dimensions      [0 0 0 0 0 0 0];

internalField   nonuniform List<scalar> 
2268
(
6.88353e-10
6.15198e-10
4.05284e-10
1.97963e-10
1.03764e-10
6.16808e-11
2.52449e-11
1.66103e-11
1.40587e-11
1.56253e-11
2.11874e-11
3.19023e-11
4.74277e-11
7.42645e-11
1.2527e-10
1.96597e-10
2.36745e-10
1.71813e-10
1.35799e-10
1.358e-10
4.62903e-09
3.74795e-08
1.52501e-07
8.15742e-10
9.51054e-10
1.37945e-09
1.05677e-09
4.59295e-10
2.12363e-10
9.44941e-11
5.99743e-11
5.92316e-11
8.87883e-11
1.56319e-10
2.49753e-10
3.3525e-10
3.61648e-10
7.30266e-10
1.67668e-09
3.93919e-09
3.56871e-09
2.28549e-09
1.35801e-10
2.5928e-08
1.07027e-06
2.20771e-06
1.13738e-09
4.63727e-09
6.11561e-09
3.88995e-09
3.99642e-09
2.42766e-10
8.42147e-11
1.00405e-10
1.49038e-10
2.82364e-10
6.75142e-10
1.12186e-09
1.12565e-09
4.25706e-10
1.2935e-09
3.93963e-09
1.82493e-08
3.38487e-08
3.6246e-08
1.47553e-08
2.17441e-08
1.49144e-06
1.60791e-06
1.52672e-09
5.05831e-09
4.5072e-09
3.5652e-08
5.75368e-08
5.41242e-08
7.52849e-09
3.20537e-10
1.69229e-10
1.66929e-10
1.72201e-10
1.98058e-10
9.70219e-10
1.53922e-10
1.53576e-10
1.53922e-10
1.53576e-10
3.09058e-10
8.59252e-08
7.37943e-09
3.82353e-10
1.00888e-09
4.26734e-09
9.85028e-10
1.58386e-09
1.60212e-09
1.22782e-07
1.68966e-06
2.06674e-06
5.3822e-07
4.96188e-10
1.62627e-10
1.62443e-10
1.62713e-10
1.38773e-07
1.55268e-07
1.48468e-05
4.6961e-05
3.34847e-05
5.19271e-05
2.88506e-05
8.59881e-08
5.04315e-06
0.000221957
0.00197823
0.00708732
9.84945e-10
9.85058e-10
4.07306e-05
2.79119e-06
3.66123e-06
2.08901e-06
2.17927e-07
2.4303e-05
0.000101468
0.000205966
0.000222449
8.55943e-05
1.81466e-07
2.13678e-05
0.000574342
0.00125742
0.000776198
0.000427895
0.000360513
0.000573955
0.00486306
0.0153751
0.0170993
0.000275953
0.000547293
0.0010332
0.000604697
4.53755e-05
2.17937e-07
2.18837e-07
4.91552e-05
0.000241422
0.000253176
0.000253156
5.34118e-05
4.17979e-06
0.000426505
0.00101023
0.00100756
0.00128252
0.00365802
0.00964273
0.017612
0.0185628
0.018344
0.0169476
0.000949273
0.00132578
0.0013261
0.00115715
0.000206014
2.18901e-07
2.17927e-07
3.14066e-06
2.30049e-05
8.45154e-05
0.000147202
3.60656e-05
9.06747e-05
0.00140293
0.00492212
0.00470205
0.00357865
0.00666898
0.0179219
0.017916
0.0156976
0.00212992
0.00132868
0.000915821
0.00401732
0.00855944
0.0111183
0.011092
0.00777627
0.00473036
0.00397787
0.00397741
0.00397783
0.00411202
0.00404308
0.0033864
0.00338605
0.00594695
0.00839902
0.00771851
0.00702496
0.0065773
0.00027695
0.00072218
0.00274253
0.00446472
0.00446377
0.00665634
0.00504382
0.00397741
0.00397697
0.00397656
0.00446456
0.00515664
0.00445644
0.00338605
0.00338602
0.0128155
0.0177333
0.0167325
0.0102927
0.000185739
0.00018574
0.00019529
0.000819625
0.00592477
0.0125713
0.0183255
0.014824
0.00708132
0.00808222
0.00817076
0.00848861
0.00678554
0.00453477
0.00338604
0.0159185
0.0177353
0.0139218
0.0114327
0.000185739
0.000241939
0.00208509
0.00623159
0.0148941
0.0268381
0.0268384
0.0261278
0.0348982
0.0380398
0.0323817
0.0340134
0.0372014
0.0372053
0.0162853
0.0110888
0.010402
0.0103992
0.0103988
0.000508078
0.0024906
0.00620978
0.00874106
0.00925312
0.0109872
0.012316
0.0122599
0.0380385
0.046278
0.043197
0.0329656
0.0355006
0.0364743
0.0474096
0.0447161
0.0308943
0.0268675
0.0127376
0.00714076
0.0024793
0.00379565
0.00561929
0.00630098
0.00960858
0.0169674
0.0213449
0.031965
0.0445624
0.0370604
0.027066
0.0271338
0.0339174
0.048187
0.0533724
0.051547
0.0481441
0.0394312
0.029298
0.00266749
0.00328361
0.00711207
0.00868976
0.00791729
0.00582718
0.00622637
0.0137864
0.0303898
0.0269805
0.0270331
0.0337088
0.0755588
0.0960578
0.0793973
0.0537419
0.0416399
0.0394324
0.0374216
0.0266136
0.00441185
0.00560826
0.00572611
0.00579636
0.0058129
0.015429
0.0644671
0.0425413
0.0390159
0.0380839
0.0561053
0.0960787
0.0960787
0.0960787
0.0634192
0.0457211
0.0433639
0.000746881
0.00102965
0.00123098
0.000389457
0.000243308
0.000244086
0.000224139
0.000341211
0.000375896
0.000344035
0.000301508
0.000173384
2.45417e-06
0.000669026
0.00292496
0.00724489
0.0107407
0.00586542
0.0128545
0.0101046
0.00135868
0.00105138
0.00148715
0.000663947
0.000663948
0.0006641
0.000831299
0.0025189
0.00240038
0.000441033
0.000440795
0.000896553
0.00131486
0.000411078
0.000344028
2.54108e-06
2.61934e-06
9.49176e-06
0.00407835
0.0130626
0.00637565
0.0102982
0.00460885
0.00462154
0.00400823
0.00173435
0.000663947
0.000683548
0.000951293
0.00522501
0.00311009
0.00302894
0.0109138
0.0163945
0.00716693
0.00769328
0.0226337
0.0444134
0.0442104
0.0182134
0.00764373
0.010528
0.0387342
0.0652011
0.0243692
0.0150371
0.0266147
0.0267535
0.0142279
0.0639609
0.0498375
0.0431753
0.0662554
0.0448507
0.00325096
0.0408907
0.0621017
0.043774
0.030251
0.0643847
0.0643853
0.0643814
0.0639918
0.0543896
0.0669517
0.0794591
0.0794639
0.0779311
0.0351528
0.0229115
0.0529329
0.0545762
0.128984
0.0940027
0.0899012
0.0708239
0.0341074
0.0265834
0.0438584
0.0409441
0.0124194
0.0533309
0.0643853
0.0643831
0.0461205
0.0358552
0.0625305
0.0794575
0.0794639
0.0794653
0.079471
0.0764565
0.00415841
0.00194413
0.00177805
0.633415
0.541306
0.359678
0.219056
0.117834
0.0339229
0.00552605
0.000887393
0.00157604
0.0114364
0.0176491
0.0121109
0.00239249
0.000870657
0.0086262
0.0385679
0.0639663
0.0718775
0.0666885
0.0589769
0.054532
0.0233174
0.000533803
0.995571
0.979755
0.920927
0.862079
0.714212
0.346902
0.0441444
0.000516881
0.000509744
0.000506687
0.000504255
0.000497311
0.000532701
0.000525643
0.000535501
0.000588311
0.00267522
0.00433712
0.00381256
0.00303216
0.0113241
0.0190603
0.00956544
0.995771
0.995787
0.996802
0.9974
0.991036
0.956217
0.749822
0.449332
0.214736
0.0744972
0.00890463
0.000483194
0.000402808
0.000280803
0.000142806
6.39316e-05
4.33956e-05
4.33555e-05
4.31282e-05
4.33555e-05
8.61254e-05
6.21268e-05
-5.07806e-06
0.998504
0.998656
0.999046
0.999842
0.999999
1
0.999926
0.993722
0.943677
0.860069
0.754608
0.585187
0.403701
0.273604
0.190208
0.144752
0.122902
0.119104
0.130215
0.160208
0.205625
0.252338
0.27474
1
1
1
1
1
1
1
0.999991
0.999652
0.998872
0.998464
0.999245
0.996947
0.985235
0.957625
0.932925
0.922325
0.921963
0.929639
0.951652
0.974348
0.980305
0.948999
1
1
1
1
1
1
1
1
0.999999
0.999998
0.999966
0.999846
0.999902
0.999975
0.999995
0.999996
0.999997
0.999999
0.999999
0.999916
0.999933
0.999133
0.989112
1
1
1
1
1
0.999999
0.999999
0.999999
0.999995
0.999991
0.999992
0.999999
0.99998
0.999963
0.999963
0.999983
1
1
1
0.999996
0.999993
0.999992
0.999966
1
1
1
0.999999
0.999987
0.999975
0.99998
0.999993
0.999998
0.999994
0.999995
0.999999
0.999999
0.99997
0.999967
0.999982
1
1
1
1
1
0.999985
0.999983
1
1
1
0.999972
0.999969
0.999969
0.999969
0.999991
1
1
1
1
1
0.999996
0.999996
0.999997
0.999992
0.999932
0.999899
0.999894
0.9999
0.999911
0.999924
1
1
0.999999
0.99998
0.99997
0.999983
0.999984
0.999985
0.999956
0.999953
0.999944
0.999921
0.999921
0.999921
0.99995
0.999956
0.999941
0.999929
0.999942
0.999957
0.999969
0.99997
0.999913
1
1
1
0.999999
0.999996
0.999999
0.999972
0.999895
0.999892
0.999892
0.999931
0.999929
0.999923
0.999947
0.99997
0.999971
0.999975
0.99998
0.999988
0.999996
0.999999
0.999998
0.999973
1
1
1
1
1
1
0.999985
0.999959
0.999953
0.999969
0.999995
0.999995
0.999993
0.999996
0.999994
0.999994
0.999999
1
1
1
1
1
0.999995
1
1
1
1
1
1
1
1
1
1
1
1
1
1
1
1
1
1
1
1
1
0.999999
0.999998
1
1
1
1
1
1
1
1
1
1
1
1
1
1
1
1
1
1
1
1
1
1
1
1
1
1
1
1
1
1
1
1
1
1
1
1
1
1
1
1
1
1
1
1
1
1
1
1
1
1
1
1
1
1
1
1
1
1
1
1
1
1
1
1
1
1
1
1
1
1
1
1
1
1
1
1
1
1
1
1
1
1
1
1
1
1
1
1
1
1
1
1
1
1
1
1
1
1
1
1
1
1
1
1
1
1
1
1
1
1
1
1
1
1
1
1
1
1
1
1
1
1
1
1
1
1
1
1
1
1
1
1
1
1
1
1
1
1
1
1
1
1
1
1
1
1
1
1
1
1
1
1
1
1
1
1
1
1
1
1
1
1
1
1
1
1
1
1
1
1
1
1
1
1
1
1
1
1
1
1
1
1
1
1
1
1
1
1
1
1
1
1
1
1
1
1
1
1
1
1
1
1
1
1
1
1
1
1
1
1
1
1
1
1
1
1
1
1
1
1
1
1
1
1
1
1
1
1
1
1
1
1
1
1
1
1
1
1
1
1
1
1
1
1
1
1
1
1
1
1
1
1
1
1
1
1
1
0.999999
1
1
1
1
1
1
1
1
1
1
1
1
1
1
1
1
1
1
1
1
1
1
0.999999
0.999999
1
1
1
1
1
1
1
1
1
1
1
1
1
1
1
1
1
1
1
1
0.999999
0.999999
0.999999
0.999999
1
1
1
1
1
1
1
1
1
1
1
1
1
1
1
1
1
1
1
0.999999
0.999999
0.999999
0.999999
1
1
1
1
1
1
1
1
1
1
1
1
1
1
1
1
1
1
1
1
0.999999
0.999999
0.999999
0.999999
1
1
1
1
1
1
1
1
1
1
1
1
1
1
1
1
1
1
1
1
0.999999
0.999999
0.999999
1
1
1
1
1
1
1
1
1
1
1
1
1
1
1
1
1
1
1
1
1
0.999998
0.999999
1
1
1
1
1
1
1
1
1
1
1
1
1
1
1
1
1
1
1
1
1
0.999999
1
1
1
1
1
1
1
1
1
1
1
1
1
1
1
1
1
1
1
1
1
1
1
1
1
1
1
1
1
1
1
1
1
1
1
1
1
1
1
1
1
1
1
1
1
1
1
1
1
1
1
1
1
1
1
1
1
1
1
1
1
1
1
1
1
1
1
1
1
1
1
1
1
1
1
1
1
1
1
1
1
1
1
1
1
0.999999
1
1
1
1
1
1
1
1
1
1
1
1
1
1
1
1
1
1
1
1
1
1
0.999999
1
1
1
1
1
1
1
1
1
1
1
1
1
1
1
1
1
1
1
1
1
1
0.0351393
0.039618
0.0394958
0.0393979
0.00173039
0.00175926
0.0207928
0.0393285
0.00712203
0.00479011
0.00237903
0.00238512
0.054606
0.0446066
0.0247065
0.0242299
0.00602853
0.0540872
0.0698275
0.0697482
6.16326e-06
1.65361e-05
7.4958e-05
0.000274633
-8.42886e-16
0.000143761
1.388e-05
2.98883e-06
-7.1753e-15
4.86589e-19
-4.82293e-19
5.71383e-09
0.265639
0.241253
0.224699
0.265473
0.872638
0.844428
0.845042
0.857073
0.9791
0.976928
0.975492
0.982019
0.998169
0.997794
0.998532
0.999522
0.999998
0.999999
0.999999
0.999999
0.999905
0.999892
0.999943
0.999999
0.999892
0.999892
0.999892
0.999925
0.999925
0.999907
0.999923
0.999948
0.999983
0.999976
0.999976
0.999981
0.999998
0.999999
0.999997
0.999981
1
0.999999
0.999998
0.999989
1
1
0.999999
0.999999
1
1
1
1
1
1
1
1
1
1
1
1
1
1
1
1
1
1
1
1
1
1
1
1
1
1
1
1
1
1
1
1
1
1
1
1
1
1
1
1
1
1
1
1
1
1
1
1
1
1
1
1
1
1
1
1
1
1
1
1
1
1
1
1
1
1
1
1
1
1
1
1
1
1
1
1
1
1
1
1
1
1
1
1
1
1
1
1
0.0393484
0.039289
0.0196015
0.005656
0.0109668
0.0172337
0.0180795
0.025577
0.0964856
0.094423
0.0804744
0.0151931
0.0644523
0.0960787
0.0960787
0.0960787
0.0913613
0.026757
0.00504862
0.039289
0.0344655
0.0199343
0.00575918
0.0212137
0.0457667
0.0555085
0.0729081
0.101482
0.0761893
0.0139745
0.00943589
0.013847
0.049666
0.0521117
0.0350782
0.0173303
0.00243896
0.00245276
0.00237185
0.00465559
0.0120438
0.0335765
0.0694129
0.0834122
0.0831708
0.0997512
0.137782
0.087232
0.0272772
0.0093613
0.0111439
0.0190605
0.0046876
0.00119939
0.0033846
0.00430404
0.00246096
0.0332573
0.0435581
0.0729684
0.0730889
0.0694918
0.0263439
0.0177181
0.13026
0.18301
0.182175
0.180807
0.180636
0.117054
0.00650618
0.00067588
0.000685996
0.00159251
0.00277845
0.00307037
0.0611978
0.0601378
0.0596684
0.0436296
0.00375867
0.000986483
0.000986785
0.0388564
0.182235
0.191939
0.191914
0.124951
0.0348097
0.00072142
0.000518552
0.00369647
0.00161275
0.00222821
0.00641838
0.000742059
0.00107464
0.00111997
0.00109988
0.00105541
0.0011342
0.000983029
0.000976367
0.0239622
0.0779759
0.0584832
0.00104731
0.000926609
0.0013274
0.000513387
0.332803
0.227846
0.00695802
0.00814725
1.02321e-06
5.81877e-05
0.000907775
0.00103575
0.00105962
0.00104834
0.000987298
0.000969519
0.000937713
0.000838085
0.000824054
0.000837922
0.00583092
0.0201598
0.12432
0.694748
0.775546
0.169111
0.00991639
2.96453e-08
9.93562e-07
9.47089e-05
0.000606628
0.000927837
0.000927774
0.0125403
0.0577351
0.12122
0.180348
0.249199
0.36806
0.531012
0.6857
0.849643
0.972036
0.984389
0.780566
0.360235
0.321191
0.205957
0.0606276
0.0610156
0.147105
0.337431
0.589974
0.755515
0.859021
0.919868
0.968534
0.996086
0.997699
0.998917
0.999574
0.999978
0.999113
0.997591
0.956717
0.847972
0.739604
0.713814
0.776918
0.899008
0.993136
0.996255
0.99869
0.999318
0.999836
0.999998
0.999999
0.999998
0.999996
0.999998
0.999999
1
0.999999
0.99978
0.978416
0.987197
0.99046
0.991543
0.998111
0.999825
1
1
0.999999
0.999998
0.999999
0.999976
0.999888
0.999864
0.99992
0.999987
0.999999
1
1
0.997468
0.993353
0.995105
0.999998
0.999998
0.999996
0.999988
0.999983
0.999979
0.999976
0.999986
0.999963
0.99983
0.999691
0.999684
0.999754
0.999963
1
1
0.999997
1
0.999999
0.999998
0.999997
0.999997
0.99997
0.999951
0.999947
0.999942
0.999942
0.99999
0.999995
0.999892
0.999683
0.999686
0.999823
0.999993
1
1
1
1
0.999999
0.999994
0.99998
0.999981
0.999983
0.999997
0.999994
0.99998
0.999985
0.999997
0.999963
0.999738
0.999722
0.999901
0.999984
1
0.99998
1
1
1
0.999999
0.999959
0.999966
0.999995
0.999997
0.999997
0.999997
0.999997
0.999997
0.999997
0.999739
0.999767
0.999995
0.999975
1
0.999988
0.999999
0.999999
0.999999
0.999991
0.999947
0.999953
0.999986
0.999997
0.999986
0.999929
0.999929
0.999989
0.999968
0.999738
0.999927
0.999995
0.999995
0.999995
0.999993
0.999994
0.999972
0.999966
0.999953
0.999947
0.999971
0.999997
0.999997
0.999986
0.999748
0.999684
0.999792
0.999734
0.999762
0.99998
0.99999
0.999949
0.999808
0.999967
0.999952
0.999947
0.999947
0.999952
0.999984
0.999997
0.999997
0.999997
0.999997
0.999753
0.999683
0.999684
0.999684
0.999832
0.999982
0.999979
0.999759
0.999726
0.999978
0.999979
0.99998
0.999986
0.999996
0.999998
0.999997
0.999995
0.999993
0.999997
0.999999
0.999899
0.999712
0.999779
0.999974
0.999984
0.99998
0.999725
0.999725
1
1
1
1
1
0.999999
0.999998
0.999999
0.999999
1
0.999999
1
1
1
0.999998
0.999983
0.999906
0.999725
0.999742
1
1
1
1
1
1
1
1
1
1
1
1
1
1
1
0.999975
0.999779
0.999759
0.999876
1
1
1
1
1
1
1
1
1
1
1
1
1
1
1
0.999991
0.999875
0.999963
0.999963
1
1
1
1
1
1
1
1
1
1
1
1
1
1
1
0.999994
0.999992
0.99999
0.999928
1
1
1
1
1
1
1
1
1
1
1
1
1
1
1
0.999994
0.999997
0.999969
0.999806
1
1
1
1
1
1
1
1
1
1
1
1
1
1
0.999999
0.999998
1
0.99998
0.999806
1
1
1
1
1
1
1
1
1
1
1
1
1
1
1
1
1
1
0.999813
1
1
1
1
1
1
1
1
1
1
1
1
1
1
0.999999
0.999999
0.999999
1
0.99995
1
1
1
1
1
1
1
1
1
1
1
1
1
0.999999
0.999999
0.999999
0.999999
1
0.999989
1
1
1
1
1
1
1
1
1
1
1
1
1
1
1
1
1
1
0.999991
1
1
1
1
1
1
1
1
1
1
1
1
1
1
0.999999
0.999998
1
1
1
1
1
1
1
1
1
1
1
1
1
1
1
1
1
0.999997
0.999993
0.999996
1
1
1
1
1
1
1
1
1
1
1
1
1
1
1
1
0.999997
0.999993
0.999993
0.999996
0.999996
1
1
1
1
1
1
1
1
1
1
1
1
1
1
0.999999
0.999994
0.999993
0.999993
0.999996
1
1
1
1
1
1
1
1
1
1
1
1
1
1
1
0.999999
0.999994
0.999994
1
1
1
1
1
1
1
1
1
1
1
1
1
1
1
1
1
0.999999
1
1
1
1
1
1
1
1
1
1
1
1
1
1
1
1
1
1
1
1
1
1
1
1
1
1
1
1
1
1
1
1
1
1
1
1
1
1
1
1
1
1
1
1
1
1
1
1
1
1
1
1
1
1
1
1
1
1
1
1
1
1
1
1
1
1
1
1
1
1
1
1
1
1
1
1
1
1
1
1
1
1
1
1
1
1
1
1
1
1
1
1
1
1
1
1
1
1
1
1
1
1
1
1
1
1
1
1
1
1
1
1
1
1
1
1
1
1
1
1
1
1
1
1
1
1
1
1
1
1
1
1
1
1
1
)
;

boundaryField
{
    leftWall
    {
        type            alphaContactAngle;
        thetaProperties 
6
(
(galistan air) 90 0 0 0
(oil galistan) 90 0 0 0
(water oil) 90 0 0 0
(water air) 90 0 0 0
(oil air) 90 0 0 0
(water galistan) 90 0 0 0
);
        value           nonuniform List<scalar> 
50
(
6.88353e-10
8.15742e-10
1.13738e-09
1.52672e-09
9.85028e-10
9.84945e-10
0.000275953
0.000949273
0.000746881
0.000663947
0.000663947
0.0639609
0.128984
0.633415
0.995571
0.995771
0.998504
1
1
1
1
1
1
1
1
1
1
1
1
1
1
1
1
1
1
1
1
1
1
1
1
1
1
1
1
1
1
1
0.999999
0.999999
)
;
    }
    rightWall
    {
        type            alphaContactAngle;
        thetaProperties 
6
(
(galistan air) 90 0 0 0
(oil galistan) 90 0 0 0
(water oil) 90 0 0 0
(water air) 90 0 0 0
(oil air) 90 0 0 0
(water galistan) 90 0 0 0
);
        value           nonuniform List<scalar> 
50
(
0.0065773
0.0102927
0.0114327
0.0103988
0.0127376
0.0394312
0.0394324
0.0433639
0.00504862
0.00245276
0.00246096
0.00307037
0.00641838
0.00814725
0.00991639
0.360235
0.956717
0.99978
1
1
1
1
1
0.999995
0.999808
0.999726
0.999725
0.999742
0.999876
0.999963
0.999928
0.999806
0.999806
0.999813
0.99995
0.999989
0.999991
1
1
0.999996
0.999996
1
1
1
1
1
1
1
1
1
)
;
    }
    lowerWall
    {
        type            alphaContactAngle;
        thetaProperties 
6
(
(galistan air) 90 0 0 0
(oil galistan) 90 0 0 0
(water oil) 90 0 0 0
(water air) 90 0 0 0
(oil air) 90 0 0 0
(water galistan) 90 0 0 0
);
        value           nonuniform List<scalar> 
62
(
6.88353e-10
6.15198e-10
4.05284e-10
1.97963e-10
1.03764e-10
6.16808e-11
2.52449e-11
1.66103e-11
1.40587e-11
1.56253e-11
2.11874e-11
3.19023e-11
4.74277e-11
7.42645e-11
1.2527e-10
1.96597e-10
2.36745e-10
1.71813e-10
1.35799e-10
1.358e-10
4.62903e-09
3.74795e-08
1.52501e-07
1.52501e-07
2.20771e-06
1.60791e-06
4.26734e-09
0.00708732
0.0170993
0.0169476
0.00132868
0.0351393
0.039618
0.0394958
0.0393979
0.000915821
0.00027695
0.000185739
0.000185739
0.000508078
0.00714076
0.029298
0.0374216
0.000915821
0.00401732
0.00855944
0.0111183
0.011092
0.00777627
0.00473036
0.00397787
0.00397741
0.00397783
0.00411202
0.00404308
0.0033864
0.00338605
0.00594695
0.00839902
0.00771851
0.00702496
0.0065773
)
;
    }
    atmosphere
    {
        type            inletOutlet;
        inletValue      uniform 1;
        value           nonuniform List<scalar> 
46
(
0.999999
1
1
1
1
1
1
1
1
1
1
1
1
1
1
1
1
1
1
1
1
1
1
1
1
1
1
1
1
1
1
1
1
1
1
1
1
1
1
1
1
1
1
1
1
1
)
;
    }
    defaultFaces
    {
        type            empty;
    }
}


// ************************************************************************* //
