/*--------------------------------*- C++ -*----------------------------------*\
| =========                 |                                                 |
| \\      /  F ield         | OpenFOAM: The Open Source CFD Toolbox           |
|  \\    /   O peration     | Version:  2312                                  |
|   \\  /    A nd           | Website:  www.openfoam.com                      |
|    \\/     M anipulation  |                                                 |
\*---------------------------------------------------------------------------*/
FoamFile
{
    version     2.0;
    format      ascii;
    arch        "LSB;label=32;scalar=64";
    class       volScalarField;
    location    "3.25";
    object      alpha.oil;
}
// * * * * * * * * * * * * * * * * * * * * * * * * * * * * * * * * * * * * * //

dimensions      [0 0 0 0 0 0 0];

internalField   nonuniform List<scalar> 
2268
(
7.60396e-10
6.88763e-10
4.95375e-10
3.28076e-10
3.29137e-10
4.05177e-10
5.28836e-10
5.15487e-10
2.73513e-10
1.51151e-10
1.29688e-10
1.43089e-10
1.84428e-10
2.507e-10
3.31354e-10
4.9813e-10
8.64592e-10
1.30228e-09
1.59815e-09
1.6194e-09
2.91762e-05
5.29723e-05
5.29665e-05
6.50694e-10
4.50904e-10
5.61378e-10
1.21991e-08
1.49207e-08
5.4685e-09
5.29773e-09
5.56547e-09
2.13159e-09
5.57106e-10
6.66075e-10
1.09325e-09
1.88328e-09
2.19684e-09
1.099e-09
7.57727e-10
1.33696e-09
2.23094e-09
3.9135e-09
1.6186e-09
2.68854e-06
2.01947e-05
2.58529e-05
5.68478e-10
1.17055e-09
8.67035e-09
1.1743e-07
6.77808e-07
4.61093e-07
4.26834e-08
3.7909e-09
1.06016e-09
1.77157e-09
4.0771e-09
7.5962e-09
1.75599e-08
4.00315e-08
1.09151e-08
1.14939e-09
1.26455e-09
2.61681e-09
3.27994e-09
2.39329e-09
1.03497e-12
1.03273e-12
1.03273e-12
5.68478e-10
6.81954e-09
1.01605e-06
1.20014e-07
2.8444e-06
1.18178e-06
5.16026e-13
3.16228e-10
3.10833e-10
3.16907e-10
3.14245e-10
5.13466e-10
7.92999e-10
7.13546e-08
4.04414e-08
1.05189e-12
1.04946e-12
1.3047e-11
1.02173e-12
1.02228e-12
1.03271e-12
1.03207e-12
2.46379e-12
5.68514e-10
1.0658e-08
5.34559e-06
1.16746e-05
6.24624e-07
6.98135e-24
5.96224e-29
-4.11421e-29
6.99315e-29
-4.77248e-29
0.000124146
0.000231006
1.61237e-09
1.62307e-09
9.55566e-09
6.14261e-05
0.00710251
0.0125911
0.0138551
0.0142123
0.0110542
0.00393425
0.00174357
0.000248251
0.00019615
5.61907e-06
5.9657e-05
0.00011776
0.000242294
0.000231356
0.000111533
0.000404324
0.00198373
0.00305071
0.00311649
0.00356772
0.00530854
0.00992673
0.0232946
0.0351605
0.0353018
0.0353096
0.0361027
0.0285587
0.0102471
0.00301139
0.00559918
0.00542662
0.00236366
0.000287384
0.000299577
0.000614781
0.000618736
0.000456102
0.000799671
0.00270259
0.0030589
0.00201468
0.0162254
0.0463183
0.0383165
0.0173107
0.0167469
0.0158598
0.0218377
0.0522602
0.0631929
0.0534965
0.0335969
0.00729559
0.00729579
0.00525763
0.000640928
4.2313e-05
0.000267279
0.000618467
0.000425162
0.000478084
0.000741218
0.000741754
0.000528505
0.020783
0.0580141
0.0519686
0.0145131
0.0152033
0.018542
0.115425
0.153799
0.153659
0.045702
0.00046689
0.0275741
0.0274231
0.0274228
0.0274228
0.0274228
0.0274228
0.0274228
0.027423
0.0274253
0.0282064
0.0289246
0.0289644
0.0314007
0.0344309
0.0354851
0.035094
0.0344753
0.0344753
0.0345676
0.0274248
0.0274564
0.0274228
0.0274228
0.0449477
0.0404085
0.0436482
0.0434804
0.0591699
0.0799114
0.0865466
0.0842454
0.112103
0.12156
0.14195
0.179559
0.216664
0.210591
0.20526
0.0274248
0.0504399
0.0895244
0.193041
0.272224
0.266787
0.261893
0.369699
0.47037
0.49083
0.463934
0.471358
0.471873
0.471811
0.484022
0.515607
0.528225
0.52823
0.527848
0.0463455
0.423098
0.487427
0.488282
0.279166
0.204412
0.279124
0.504432
0.545138
0.522519
0.37131
0.354396
0.334475
0.303185
0.276905
0.291662
0.387347
0.378435
0.281016
0.326816
0.503251
0.458827
0.157816
0.112546
0.11315
0.23742
0.390104
0.545125
0.170773
0.0569148
0.055371
0.055653
0.0601531
0.0533174
0.0571035
0.0747868
0.0803164
0.0943828
0.473331
0.437892
0.150707
0.142372
0.437295
0.545126
0.545139
0.545125
0.545138
0.157059
0.060505
0.0534795
0.0533225
0.0532152
0.053191
0.053163
0.0531834
0.0532763
0.0638711
0.473175
0.387238
0.0537593
0.137516
0.290582
0.255875
0.254723
0.407217
0.545124
0.434936
0.132645
0.0680066
0.0642649
0.0531594
0.053141
0.053102
0.0530884
0.0608901
0.0884198
0.470092
0.446827
0.0330818
0.0206058
0.0174131
0.015967
0.0159016
0.0159018
0.186905
0.435559
0.286844
0.091984
0.0792289
0.0794988
0.0767154
0.0687792
0.136774
0.37471
0.700152
0.00413925
0.00366839
0.00192452
0.000181514
4.23737e-05
2.64188e-05
8.18147e-05
6.84022e-05
5.97434e-05
6.63662e-05
4.55923e-05
0.00017459
0.00576746
0.0542452
0.0525469
0.0127775
0.00831091
0.0368544
0.153304
0.153659
0.0662802
0.00046591
0.000477818
0.00018365
0.000167785
0.000163267
1.81723e-05
2.06142e-07
-2.19021e-24
2.57719e-23
1.85004e-07
6.38247e-24
-1.75397e-23
1.9167e-06
5.49887e-05
0.00047112
0.0117597
0.043669
0.0169429
0.00602831
0.0120014
0.0214114
0.0094549
0.00217369
0.00223033
0.00284186
0.0372468
0.0322739
0.0137475
0.000603747
1.36231e-18
-7.16246e-11
-2.19703e-09
-1.66496e-20
0.0209072
0.0262065
2.84024e-08
2.04574e-08
4.87478e-08
1.39804e-05
0.00998158
0.0104142
0.00543253
0.00543541
0.00661523
0.0299373
0.0595945
0.0373359
0.0107591
0.604787
0.608852
0.540165
0.390925
0.349996
0.359056
0.269747
0.279893
0.354595
0.166857
0.0454294
0.0285843
0.0552121
0.110312
0.10439
0.0232279
0.00543766
0.104011
0.363959
0.675142
0.757676
0.651653
0.518787
0.870672
0.905779
0.909843
0.90987
0.907563
0.887902
0.846554
0.85225
0.873273
0.703549
0.652809
0.677817
0.780867
0.816671
0.740104
0.625015
0.614681
0.775969
0.890924
0.921775
0.994674
0.997706
0.997876
0.365408
0.458073
0.640139
0.778524
0.86011
0.910582
0.98292
0.999091
0.9984
0.988442
0.982217
0.987863
0.997601
0.999129
0.991373
0.961374
0.935717
0.927789
0.933306
0.941018
0.944851
0.975433
0.998848
0.000206569
0.0182606
0.078889
0.130943
0.244528
0.599204
0.935723
0.99921
0.999265
0.999392
0.999437
0.999438
0.999441
0.999444
0.999445
0.999387
0.997319
0.995659
0.996118
0.996374
0.987767
0.98082
0.990083
-1.94114e-23
-2.46004e-20
8.14956e-20
-9.46004e-20
7.04091e-20
0.0253713
0.238325
0.548966
0.783503
0.922471
0.990084
0.999441
0.999444
0.999447
0.99945
0.999451
0.999424
0.999333
0.999048
0.998283
0.998007
0.998023
0.993173
-4.34711e-24
4.46009e-08
2.93707e-08
3.96052e-07
3.80109e-07
5.46158e-08
8.87981e-08
0.00557995
0.0534512
0.136871
0.243773
0.414664
0.59615
0.724769
0.80293
0.847646
0.869495
0.873803
0.867559
0.839636
0.793393
0.73751
0.703863
1.96358e-08
2.44266e-08
8.50044e-09
2.57685e-07
4.5236e-07
2.79914e-07
1.55925e-07
1.95901e-20
-6.84437e-11
5.55192e-20
-1.62531e-19
0.000115464
0.002952
0.014586
0.0392695
0.0607864
0.0716224
0.0751751
0.0700008
0.0482073
0.0233318
0.0056132
0.0299278
2.72092e-08
1.42971e-08
8.40267e-09
8.72478e-08
2.33799e-07
3.13384e-07
2.28095e-07
1.32107e-07
8.77452e-08
2.89174e-08
3.6599e-11
1.86203e-06
-2.51761e-11
-2.42083e-08
8.55512e-09
-3.71357e-21
-3.75991e-26
-1.28087e-27
2.54375e-14
5.86868e-21
1.47495e-20
-3.70883e-15
-3.62567e-21
2.64784e-08
1.27677e-08
6.92723e-09
1.89324e-08
5.36635e-08
2.33106e-07
2.41655e-07
1.80553e-07
1.97781e-07
1.98159e-07
7.06741e-08
2.3694e-13
9.90425e-06
2.82954e-05
3.2345e-05
1.58563e-05
1.9679e-07
2.49123e-08
3.23128e-10
-3.7308e-17
1.22387e-10
9.79251e-12
7.34358e-30
2.39254e-08
7.73412e-09
6.69243e-09
1.37599e-06
1.18707e-05
2.30073e-05
1.89297e-05
6.17612e-06
8.52502e-08
5.31532e-08
2.12267e-08
1.02329e-23
9.3771e-07
2.96602e-05
3.23643e-05
1.74047e-05
2.04612e-07
1.222e-07
6.10901e-08
1.94677e-08
5.41277e-10
-2.99091e-25
-2.36696e-14
2.12895e-08
7.09514e-09
7.1698e-08
2.75747e-05
2.94751e-05
2.93866e-05
2.931e-05
9.03355e-06
1.70639e-11
1.1892e-11
6.62195e-11
2.80655e-12
1.39305e-10
3.64997e-06
4.33089e-06
2.83638e-06
8.47581e-06
6.84036e-05
7.27644e-05
7.27002e-05
5.72073e-05
2.71572e-05
1.43513e-05
2.01855e-08
7.10596e-09
1.03785e-06
1.94769e-05
2.9626e-05
1.59882e-05
1.42608e-05
1.38787e-05
3.68998e-05
3.51795e-05
3.74255e-05
4.58352e-05
4.59049e-05
3.4905e-05
5.316e-06
8.75675e-06
4.97059e-05
6.44703e-05
4.66124e-05
2.47168e-05
9.80176e-06
6.06349e-08
2.6657e-05
2.07069e-08
1.08157e-08
9.01028e-08
5.76878e-07
3.37004e-06
1.35054e-07
2.4005e-05
7.86904e-05
7.8527e-05
7.84995e-05
5.07684e-05
4.09839e-05
4.11097e-05
1.60962e-05
6.33453e-06
1.85886e-05
2.03975e-05
1.55398e-05
1.00874e-05
2.35974e-06
1.35794e-08
1.32797e-08
1.79654e-05
2.07105e-08
5.75942e-09
1.40792e-09
1.39673e-09
1.38136e-09
1.22706e-07
1.24263e-05
3.11013e-05
3.3707e-05
2.12696e-05
4.43442e-06
2.90459e-06
1.94389e-06
8.47391e-07
4.09011e-06
4.50219e-06
5.20632e-07
1.34943e-08
1.34954e-08
1.46283e-08
2.29743e-08
1.35796e-08
3.73546e-06
2.03758e-08
3.32249e-09
5.3113e-09
1.02047e-08
1.96337e-08
7.05708e-08
7.8614e-08
6.64801e-09
6.62395e-09
6.64776e-09
6.62619e-09
6.64909e-09
6.62878e-09
8.20907e-08
2.59619e-08
1.34981e-08
1.34943e-08
1.34912e-08
1.34915e-08
3.75988e-08
2.67775e-07
1.02819e-06
9.65366e-07
2.19604e-08
3.05501e-09
8.19849e-09
2.25863e-08
4.68448e-08
6.67664e-08
5.49068e-08
3.46135e-08
1.56001e-08
6.63339e-09
1.01228e-08
1.58681e-08
2.28673e-08
5.30078e-09
1.51125e-08
1.82765e-08
1.48701e-08
1.36608e-08
1.40349e-08
2.44589e-08
2.78367e-08
1.10317e-07
4.04249e-07
2.24578e-08
2.58083e-09
6.16342e-09
1.89552e-08
4.78584e-08
8.25534e-08
9.57009e-08
8.82656e-08
5.32763e-08
1.53577e-08
6.69889e-09
8.56224e-09
7.82374e-09
4.92397e-09
6.21945e-09
7.06232e-09
8.33288e-09
9.22248e-09
8.97868e-09
8.052e-09
7.74616e-09
7.0191e-09
7.01666e-09
2.28157e-08
2.21617e-09
3.25128e-09
7.25293e-09
1.7758e-08
4.15819e-08
6.12771e-08
6.07191e-08
3.33489e-08
9.73194e-09
4.5252e-09
4.84279e-09
4.4576e-09
3.77641e-09
3.36552e-09
3.17928e-09
3.64801e-09
4.62127e-09
5.58238e-09
5.94174e-09
6.12799e-09
7.34308e-09
8.48764e-09
2.24951e-08
1.97562e-09
1.98799e-09
2.7164e-09
2.85404e-09
3.92337e-09
7.68452e-09
9.10413e-09
7.15076e-09
3.18978e-09
3.0856e-09
3.31196e-09
2.87434e-09
2.40388e-09
2.14516e-09
2.04043e-09
2.10398e-09
2.30356e-09
2.79311e-09
3.59489e-09
4.12052e-09
4.81091e-09
6.00493e-09
7.26246e-09
1.86468e-09
1.62744e-09
1.60938e-09
1.44274e-09
1.1949e-09
8.65954e-10
8.94404e-10
1.10733e-09
1.24467e-09
1.38156e-09
1.40519e-09
1.2662e-09
1.1247e-09
1.05212e-09
1.07155e-09
1.1681e-09
1.3553e-09
1.66932e-09
2.16146e-09
2.58524e-09
3.19013e-09
3.71314e-09
2.65756e-09
2.49889e-09
1.87839e-09
1.67818e-09
1.35409e-09
1.07895e-09
8.62386e-10
7.16103e-10
6.17447e-10
5.47762e-10
5.06899e-10
4.7729e-10
4.56391e-10
4.52138e-10
4.70253e-10
5.22138e-10
6.03086e-10
7.26235e-10
9.22805e-10
1.25584e-09
1.52561e-09
1.87811e-09
2.26928e-09
3.11557e-09
3.03749e-09
2.43704e-09
2.10104e-09
1.60775e-09
1.23191e-09
9.33537e-10
6.93017e-10
5.04312e-10
3.67302e-10
2.68808e-10
2.07263e-10
1.78431e-10
1.75617e-10
1.96116e-10
2.32047e-10
2.84229e-10
3.58052e-10
4.6517e-10
6.55635e-10
8.38368e-10
1.093e-09
1.33694e-09
3.64665e-09
3.42653e-09
2.91442e-09
2.52606e-09
1.96143e-09
1.53145e-09
1.17631e-09
8.7929e-10
6.36886e-10
4.48889e-10
2.9643e-10
1.8027e-10
1.10847e-10
8.10501e-11
7.82948e-11
9.23595e-11
1.17822e-10
1.55343e-10
2.11501e-10
3.19155e-10
4.14028e-10
5.72967e-10
7.39149e-10
4.3727e-09
3.87424e-09
3.38712e-09
2.91627e-09
2.18415e-09
1.7614e-09
1.41937e-09
1.07765e-09
8.25254e-10
6.30841e-10
4.43813e-10
2.67434e-10
1.40097e-10
6.81968e-11
3.91773e-11
3.47763e-11
4.26188e-11
5.81448e-11
8.37332e-11
1.34826e-10
1.8917e-10
2.80624e-10
3.81727e-10
4.91805e-09
4.25044e-09
3.62462e-09
2.15064e-09
1.7129e-09
1.62585e-09
1.5334e-09
1.07547e-09
9.05019e-10
7.84446e-10
6.2273e-10
4.10956e-10
2.25431e-10
1.02153e-10
4.01845e-11
1.83291e-11
1.50356e-11
1.9876e-11
3.04732e-11
5.28841e-11
7.90258e-11
1.30902e-10
1.92313e-10
5.61502e-09
5.32119e-09
5.61543e-09
5.03807e-09
1.31896e-08
3.17462e-08
7.26908e-10
6.84778e-10
7.76179e-10
8.30977e-10
7.69999e-10
5.65974e-10
3.41132e-10
1.66229e-10
6.3622e-11
2.0813e-11
8.13343e-12
6.73819e-12
1.04525e-11
1.96951e-11
3.46205e-11
6.08713e-11
9.8331e-11
5.8787e-09
7.15602e-09
1.67255e-08
7.80254e-08
5.20752e-07
3.40731e-07
1.96263e-08
5.36082e-10
5.64146e-10
7.8234e-10
8.55446e-10
6.90673e-10
4.54831e-10
2.42695e-10
9.99118e-11
3.31003e-11
9.58694e-12
3.69567e-12
3.89338e-12
7.5859e-12
1.44836e-11
3.13745e-11
5.39435e-11
6.38591e-09
1.13185e-08
5.01928e-08
3.01682e-07
8.58844e-07
8.58844e-07
4.53743e-07
5.33686e-10
5.48903e-10
6.9012e-10
8.98711e-10
7.70006e-10
5.37407e-10
3.1213e-10
1.43186e-10
5.09551e-11
1.46345e-11
3.9193e-12
1.99444e-12
3.38795e-12
7.63472e-12
1.67121e-11
3.17245e-11
6.66004e-09
1.30079e-08
1.06937e-07
8.58823e-07
8.58844e-07
8.58787e-07
6.64694e-07
5.35396e-10
5.95736e-10
6.85944e-10
9.37295e-10
8.09101e-10
5.71992e-10
3.56091e-10
1.80473e-10
6.99726e-11
2.13849e-11
5.34105e-12
1.57348e-12
1.50442e-12
3.24557e-12
9.61726e-12
1.8886e-11
6.77981e-09
1.15891e-08
1.25534e-07
8.58818e-07
8.58787e-07
8.0508e-07
1.35561e-07
5.35115e-10
9.62646e-10
7.0381e-10
9.70341e-10
8.26021e-10
5.64953e-10
3.58092e-10
1.90788e-10
8.18239e-11
2.82566e-11
7.26077e-12
1.79109e-12
9.0808e-13
1.84906e-12
4.89034e-12
1.16265e-11
6.75427e-09
1.24927e-08
8.15604e-08
3.81913e-07
7.5581e-07
5.9407e-07
9.84586e-09
2.29401e-09
1.3842e-09
6.2886e-10
9.4837e-10
8.18259e-10
5.3577e-10
3.29748e-10
1.78347e-10
8.05939e-11
3.05499e-11
9.00374e-12
2.09736e-12
5.74847e-13
6.97459e-13
2.56884e-12
6.01812e-12
1.43422e-08
1.18183e-08
3.48909e-08
7.04283e-08
1.37092e-07
9.30194e-08
5.78842e-08
1.47025e-08
1.90112e-09
6.29971e-10
8.48121e-10
7.57471e-10
4.77261e-10
2.73488e-10
1.44651e-10
6.80074e-11
2.77449e-11
9.00312e-12
2.25122e-12
5.15654e-13
3.68413e-13
9.85695e-13
3.11384e-12
3.35515e-08
1.07971e-08
1.45682e-08
3.42527e-08
4.3644e-08
5.26464e-08
8.05699e-08
2.4228e-08
3.00011e-09
7.21666e-10
6.82962e-10
6.29136e-10
3.89584e-10
2.13662e-10
1.04344e-10
4.79704e-11
2.02377e-11
7.24379e-12
2.03507e-12
4.48237e-13
1.74456e-13
4.10667e-13
1.24556e-12
3.35746e-08
1.07993e-08
1.1288e-08
2.86723e-08
1.29012e-07
2.17861e-07
1.48566e-07
1.99691e-08
3.17989e-09
7.86607e-10
4.87018e-10
4.61415e-10
2.88269e-10
1.4804e-10
6.55572e-11
2.78099e-11
1.16751e-11
4.44339e-12
1.42582e-12
3.4306e-13
8.8256e-14
1.07666e-13
5.40263e-13
3.06355e-08
1.78926e-08
3.49442e-08
1.4282e-07
2.17861e-07
2.17944e-07
9.25453e-08
1.3465e-08
3.28455e-09
6.80117e-10
3.10176e-10
2.9104e-10
1.83481e-10
8.95246e-11
3.56627e-11
1.33113e-11
5.09676e-12
1.98439e-12
7.0639e-13
2.04481e-13
4.83802e-14
4.00858e-14
1.57654e-13
2.84282e-08
2.876e-08
1.15584e-07
1.79572e-07
1.7366e-07
6.37575e-08
1.1157e-08
3.25365e-09
1.2963e-09
3.30945e-10
1.51639e-10
1.46194e-10
9.57663e-11
4.54307e-11
1.62347e-11
5.11163e-12
1.655e-12
5.79067e-13
2.30711e-13
8.63395e-14
2.38627e-14
1.15159e-14
4.60869e-14
6.65827e-08
1.17928e-07
1.56424e-07
1.38073e-07
3.59963e-08
4.92081e-09
7.16867e-10
1.08036e-10
2.23455e-10
9.77779e-11
5.15416e-11
5.61203e-11
3.94094e-11
1.85883e-11
6.20242e-12
1.59596e-12
3.88799e-13
1.08726e-13
4.33836e-14
2.45602e-14
7.61975e-15
3.361e-15
1.2137e-14
2.36767e-07
2.37012e-07
1.39378e-07
3.45946e-08
5.46664e-09
9.76684e-10
1.32273e-10
9.41467e-12
6.41535e-11
2.17319e-11
1.11361e-11
1.37971e-11
1.10485e-11
5.36978e-12
1.67504e-12
3.60178e-13
6.19737e-14
1.14313e-14
4.72992e-15
4.36392e-15
1.90098e-15
9.38149e-16
2.7916e-15
2.66086e-07
1.81453e-07
4.4591e-08
6.10992e-09
1.31669e-09
1.91419e-10
1.31368e-11
5.09375e-13
1.30636e-11
2.02676e-12
8.56335e-13
1.7223e-12
1.54723e-12
7.71947e-13
2.27776e-13
4.03561e-14
4.77313e-15
5.80514e-16
2.89284e-16
4.88988e-16
4.35826e-16
2.36238e-16
6.03083e-16
0.00543585
0.0842941
0.133661
0.194051
0.00502145
0.004957
0.00501943
0.00712398
0.00337567
0.003504
0.00572721
0.00597488
0.276443
0.236476
0.230098
0.210743
0.992721
0.940627
0.924892
0.90464
0.998846
0.99885
0.998842
0.998839
0.998383
0.997477
0.998798
0.99883
0.980909
0.979093
0.989449
0.993703
0.71298
0.737488
0.754348
0.712042
0.106498
0.134417
0.129477
0.116606
3.8313e-20
0.00102631
0.00348543
0.00996313
-4.59845e-13
7.34321e-23
-1.09508e-13
-5.87338e-13
-5.55719e-14
-1.13277e-14
-2.83111e-15
-3.0645e-14
3.35388e-05
4.86482e-05
3.35873e-05
1.3135e-06
4.76314e-05
4.89363e-05
4.9465e-05
4.97228e-05
4.99064e-05
4.97457e-05
4.97572e-05
4.9607e-05
1.34089e-05
2.02263e-05
2.11777e-05
1.78166e-05
3.93073e-07
3.91038e-07
2.51538e-06
1.80726e-05
3.54532e-07
7.22064e-07
1.53417e-06
1.05562e-05
3.37432e-08
3.37366e-08
5.4143e-07
5.6531e-07
1.54984e-08
4.58887e-08
9.34816e-08
1.03141e-07
8.54899e-09
9.82824e-09
1.82359e-08
2.16942e-08
4.50276e-09
5.20908e-09
6.81619e-09
7.42138e-09
2.72028e-09
2.81446e-09
3.23926e-09
3.75527e-09
1.55421e-09
1.74899e-09
1.97002e-09
2.04754e-09
9.14197e-10
1.01398e-09
1.1114e-09
1.23673e-09
5.08646e-10
5.7407e-10
6.69753e-10
7.02121e-10
2.65312e-10
3.23127e-10
3.72106e-10
4.3036e-10
1.49084e-10
1.86088e-10
2.30848e-10
2.5966e-10
8.83679e-11
1.17758e-10
1.44925e-10
1.77831e-10
5.71371e-11
7.5155e-11
1.02795e-10
1.22474e-10
3.55461e-11
5.32638e-11
6.85318e-11
9.01376e-11
2.21892e-11
3.30632e-11
4.6813e-11
5.90126e-11
1.37254e-11
2.00672e-11
2.85806e-11
3.99297e-11
6.61367e-12
1.02604e-11
1.58306e-11
2.09002e-11
3.50919e-12
5.13952e-12
8.09442e-12
1.23172e-11
1.34755e-12
2.27567e-12
3.90212e-12
5.50309e-12
5.70764e-13
8.8813e-13
1.47166e-12
2.48032e-12
1.53403e-13
2.8762e-13
5.25051e-13
7.83192e-13
4.52532e-14
8.19143e-14
1.43026e-13
2.74377e-13
1.11626e-14
2.20159e-14
4.21378e-14
8.05168e-14
2.60445e-15
5.22912e-15
1.15103e-14
2.03443e-14
0.300181
0.356865
0.206127
0.0567845
0.0198179
0.0159954
0.0160347
0.0159225
0.0498087
0.378146
0.303815
0.282159
0.491069
0.519995
0.51628
0.634412
0.771265
0.936411
0.983501
0.106833
0.276942
0.276163
0.114395
0.0197805
0.0253029
0.0583715
0.0826467
0.352518
0.783792
0.844589
0.840584
0.921289
0.926401
0.942288
0.960102
0.974509
0.989871
0.98989
0.0252362
0.0744967
0.0749252
0.0852663
0.263483
0.569234
0.67478
0.546484
0.426957
0.822361
0.884445
0.902466
0.903499
0.964349
0.990037
0.989983
0.989905
0.989894
0.989891
0.187303
0.176223
0.337983
0.711995
0.918878
0.962023
0.97068
0.697945
0.35356
0.348041
0.348383
0.481585
0.851253
0.991242
0.990091
0.982174
0.986084
0.9884
0.989861
0.904253
0.921189
0.938668
0.953159
0.987129
0.989238
0.991629
0.956484
0.726204
0.513205
0.560807
0.831916
0.960235
0.99675
0.989549
0.974512
0.980739
0.989665
0.989864
0.998834
0.998836
0.998842
0.998849
0.998794
0.998521
0.998716
0.998342
0.974386
0.921086
0.941141
0.997579
0.997624
0.997653
0.987732
0.644683
0.752171
0.987176
0.989865
0.998143
0.998708
0.998849
0.998854
0.998859
0.998865
0.998874
0.99887
0.998862
0.998829
0.998681
0.998057
0.993008
0.978825
0.872503
0.284976
0.203509
0.823638
0.989864
0.992737
0.994395
0.998843
0.998849
0.998854
0.998409
0.985096
0.938878
0.874365
0.814644
0.745729
0.627079
0.464338
0.311436
0.149704
0.0211862
1.30547e-07
0.210591
0.639549
0.655939
0.786921
0.933178
0.933958
0.848577
0.656019
0.402127
0.236498
0.133782
0.0733013
0.026121
1.78184e-14
3.50568e-14
2.8152e-13
-1.0672e-17
-2.59897e-10
1.28258e-07
-8.3486e-19
0.0428133
0.129926
0.247972
0.273444
0.211271
0.0903183
-2.52323e-19
-1.00707e-27
-2.49747e-27
4.72504e-27
9.22679e-28
5.95769e-11
3.02285e-08
1.03455e-06
2.34226e-06
1.10105e-07
6.37873e-08
2.62119e-08
-7.35005e-16
-1.42677e-20
0.0120503
0.00165691
5.29979e-13
2.54908e-14
6.32741e-16
2.55835e-14
8.22523e-10
1.73277e-09
3.84322e-09
4.08485e-09
2.12341e-09
1.06756e-07
1.26473e-05
2.27736e-05
1.81824e-05
3.63887e-08
3.8076e-08
1.10148e-08
-3.05075e-21
-8.35944e-28
1.83268e-25
1.7803e-07
1.06713e-06
1.17947e-06
2.95523e-09
1.54896e-09
1.64422e-09
5.71474e-09
4.03654e-09
6.59545e-10
6.48682e-10
1.61504e-05
0.000114807
0.000121942
5.45669e-05
2.05e-06
1.12314e-08
3.2658e-08
2.06721e-09
2.98634e-07
5.12813e-07
2.16192e-06
3.18238e-06
7.60139e-07
1.63599e-09
1.06547e-07
4.43185e-09
4.28895e-09
3.04976e-09
7.79314e-09
7.08224e-09
8.75616e-05
0.000237636
0.0001448
1.64385e-05
1.15126e-08
5.84131e-08
1.56276e-07
1.33224e-07
2.6174e-07
7.64629e-07
6.27954e-06
1.96705e-05
7.442e-06
1.45022e-06
2.55949e-07
4.25351e-09
3.02486e-09
5.22132e-08
2.33911e-06
3.64209e-05
0.000257059
0.000256807
2.38902e-06
1.1538e-08
6.13488e-08
2.01635e-05
2.70382e-07
3.24319e-07
4.01742e-07
1.20611e-06
3.85306e-05
3.34794e-05
4.80129e-06
2.15365e-06
8.20498e-07
9.01626e-07
7.25862e-07
3.87844e-07
1.07093e-06
0.000256996
0.000232239
3.73058e-06
2.75204e-08
1.93512e-08
1.18456e-05
1.93796e-07
9.38377e-08
2.14923e-07
6.64712e-06
3.8712e-05
3.87783e-05
1.42601e-05
2.39534e-06
3.90213e-06
4.58479e-05
5.42465e-05
5.02053e-06
2.13183e-05
0.000253296
7.17199e-05
4.1593e-06
1.80943e-06
3.85786e-06
6.14161e-06
1.8218e-06
9.11526e-08
2.54543e-06
2.29376e-05
3.86356e-05
2.4926e-05
2.59854e-06
1.38061e-06
1.36584e-06
0.000223402
0.000288378
0.000180155
0.000238682
0.000222072
1.72245e-05
5.91997e-06
3.68689e-05
0.000172859
1.83928e-05
1.19372e-05
1.78845e-05
2.27781e-05
2.86404e-05
1.49025e-05
2.12629e-06
1.77427e-06
1.89646e-06
2.24371e-06
0.0002272
0.000288547
0.000288433
0.000288566
0.00015643
1.46056e-05
9.77759e-06
0.000200579
0.000233451
1.34071e-05
6.03948e-06
7.0294e-06
7.81081e-06
3.56392e-06
9.5097e-07
9.26574e-07
2.97485e-06
6.51176e-06
2.8021e-06
2.2358e-07
8.30318e-05
0.000261054
0.000211355
2.60554e-05
5.57462e-06
5.67718e-06
0.000233546
0.000233471
3.31639e-07
1.30337e-07
1.34007e-07
1.54263e-07
1.05928e-07
7.63995e-07
1.47281e-06
1.22838e-06
6.5177e-07
1.01957e-07
2.09024e-08
2.06516e-08
4.00898e-08
1.98895e-07
8.42903e-07
4.8672e-06
5.67012e-05
0.000233405
0.000233449
4.83129e-08
2.64535e-08
2.41034e-08
2.36507e-08
1.05274e-07
3.57082e-07
3.89967e-07
2.87742e-07
2.04535e-07
1.3491e-07
7.57306e-08
3.9168e-08
2.71102e-08
6.12985e-08
4.76438e-07
4.70982e-06
0.000182286
0.000226374
0.000118891
1.50372e-08
1.22086e-08
1.25646e-08
2.46286e-08
8.20174e-08
1.718e-07
3.01614e-07
2.99134e-07
2.04907e-07
1.01203e-07
4.85909e-08
3.36073e-08
2.93568e-08
1.59732e-07
1.78864e-07
4.20508e-06
9.27664e-05
3.32449e-05
3.18004e-05
7.43671e-09
8.06066e-09
8.42007e-09
1.54124e-08
4.50279e-08
1.09213e-07
1.91999e-07
1.69424e-07
9.93728e-08
4.229e-08
2.11563e-08
1.699e-08
2.02457e-08
6.9192e-08
6.68519e-08
3.95154e-06
9.1349e-07
5.62247e-06
5.92734e-05
3.7945e-09
4.39491e-09
4.75458e-09
5.6574e-09
7.91549e-09
1.86251e-08
3.29356e-08
2.9443e-08
2.01576e-08
1.25066e-08
8.46305e-09
1.28052e-08
1.07812e-08
1.02219e-08
2.47181e-07
3.39152e-06
9.28548e-07
2.44232e-05
0.000169902
2.21447e-09
2.44626e-09
2.68838e-09
2.8147e-09
2.51804e-09
2.46255e-09
3.66725e-09
5.21144e-09
5.91208e-09
6.1521e-09
6.74196e-09
1.07531e-08
8.47862e-09
2.95302e-09
3.51777e-07
8.17107e-07
6.8312e-08
1.66991e-05
0.000169858
1.26389e-09
1.46201e-09
1.63956e-09
1.76745e-09
1.90923e-09
2.23227e-09
2.88235e-09
3.62821e-09
4.40692e-09
5.18175e-09
5.81827e-09
7.05755e-09
1.20226e-08
2.76463e-09
8.17415e-08
1.50008e-07
6.82043e-08
6.82522e-08
0.000164699
7.7417e-10
9.17635e-10
1.07055e-09
1.23311e-09
1.44533e-09
1.75651e-09
2.28055e-09
2.97264e-09
3.81033e-09
4.61284e-09
5.47333e-09
6.89532e-09
6.97995e-09
3.42429e-07
1.13908e-06
1.22563e-06
5.57578e-07
1.55432e-07
4.50793e-05
4.63392e-10
5.98211e-10
7.32825e-10
9.00608e-10
1.11588e-09
1.40291e-09
1.84166e-09
2.4493e-09
3.20838e-09
4.03586e-09
5.03372e-09
7.19777e-09
7.70199e-09
5.69646e-07
1.22624e-06
1.22624e-06
8.05736e-07
5.96605e-08
9.41849e-06
3.01028e-10
4.05847e-10
5.37681e-10
6.96138e-10
8.98886e-10
1.16107e-09
1.53541e-09
2.07395e-09
2.72194e-09
3.51856e-09
4.40293e-09
6.5267e-09
2.34679e-08
7.29863e-08
4.42599e-07
3.50761e-07
2.57211e-07
6.04009e-08
7.9324e-06
2.08617e-10
2.99918e-10
4.17875e-10
5.69173e-10
7.59438e-10
1.00829e-09
1.34123e-09
1.82725e-09
2.51201e-09
3.29618e-09
4.12193e-09
5.59576e-09
1.51735e-08
5.64205e-08
9.52242e-07
1.62223e-06
8.91191e-08
2.90529e-08
1.58105e-07
1.50165e-10
2.28085e-10
3.35966e-10
4.72174e-10
6.51951e-10
8.84112e-10
1.21982e-09
1.71422e-09
2.48375e-09
3.55947e-09
4.71824e-09
5.68993e-09
1.16523e-08
6.43134e-08
3.15682e-06
7.19119e-06
4.10904e-06
2.94964e-08
3.10728e-08
1.11373e-10
1.74873e-10
2.64492e-10
3.79932e-10
5.36592e-10
7.48235e-10
1.06083e-09
1.56295e-09
2.4453e-09
3.9621e-09
6.0329e-09
7.77883e-09
8.46291e-09
2.84894e-08
2.97454e-06
7.22097e-06
7.26617e-06
3.86418e-06
3.92827e-06
7.85904e-11
1.27106e-10
1.93995e-10
2.87084e-10
4.11816e-10
5.9063e-10
8.52461e-10
1.3094e-09
2.18011e-09
4.03047e-09
7.70329e-09
1.29047e-08
1.38775e-08
1.38532e-08
6.27339e-07
6.07625e-06
7.26617e-06
7.26617e-06
3.78529e-06
5.10737e-11
8.64718e-11
1.33925e-10
2.01617e-10
2.95671e-10
4.26926e-10
6.31564e-10
1.00878e-09
1.75445e-09
3.49197e-09
8.03958e-09
2.00497e-08
4.0435e-08
4.24342e-08
5.95941e-08
1.06183e-06
6.07103e-06
5.73876e-06
3.49807e-07
3.18637e-11
5.307e-11
8.50374e-11
1.30107e-10
1.93852e-10
2.8592e-10
4.36767e-10
7.07933e-10
1.23793e-09
2.41167e-09
5.40301e-09
2.03172e-08
7.87e-08
1.31186e-07
7.12169e-08
9.01475e-08
5.08955e-07
4.70948e-07
2.05061e-08
1.67172e-11
2.97427e-11
4.89028e-11
7.62681e-11
1.15571e-10
1.75951e-10
2.74903e-10
4.57099e-10
8.08043e-10
1.52123e-09
3.05606e-09
8.03972e-09
6.31355e-08
1.75322e-07
1.8784e-07
3.17343e-08
2.04082e-08
2.04078e-08
2.05168e-08
8.1232e-12
1.48614e-11
2.52105e-11
4.02338e-11
6.29004e-11
9.88421e-11
1.59335e-10
2.73425e-10
5.01272e-10
9.69349e-10
1.93152e-09
4.01151e-09
1.63021e-08
1.19431e-07
2.26826e-07
1.80142e-07
2.45444e-08
3.08807e-08
1.79804e-07
3.43757e-12
6.6417e-12
1.16059e-11
1.91733e-11
3.13488e-11
5.10427e-11
8.52369e-11
1.50878e-10
2.85081e-10
5.65006e-10
1.14061e-09
2.31042e-09
4.13129e-09
3.755e-08
1.7776e-07
2.36828e-07
1.55641e-07
8.4651e-08
2.3353e-07
1.35058e-12
2.60526e-12
4.7112e-12
8.21136e-12
1.39405e-11
2.37455e-11
4.11962e-11
7.58928e-11
1.49777e-10
3.14936e-10
6.70955e-10
1.36982e-09
2.35749e-09
5.74909e-09
6.84115e-08
2.37866e-07
2.39632e-07
2.20803e-07
2.26699e-07
4.35379e-13
8.77409e-13
1.65812e-12
3.04777e-12
5.55105e-12
1.01069e-11
1.86582e-11
3.57325e-11
7.32325e-11
1.59608e-10
3.58221e-10
7.8874e-10
1.69846e-09
3.33803e-09
1.64469e-08
1.11166e-07
2.48657e-07
2.45299e-07
6.99849e-08
1.201e-13
2.56438e-13
5.07834e-13
9.97822e-13
1.97572e-12
3.88488e-12
7.60566e-12
1.53119e-11
3.23112e-11
7.26573e-11
1.70593e-10
3.96628e-10
8.91817e-10
2.06264e-09
4.80294e-09
3.21951e-08
1.44024e-07
2.01347e-07
1.41744e-08
3.1463e-14
6.80634e-14
1.41845e-13
2.92824e-13
6.10672e-13
1.27906e-12
2.63502e-12
5.44219e-12
1.15739e-11
2.61743e-11
6.31624e-11
1.53676e-10
3.60725e-10
7.83185e-10
1.6213e-09
4.66465e-09
1.62505e-08
2.48431e-08
4.28864e-09
)
;

boundaryField
{
    leftWall
    {
        type            zeroGradient;
    }
    rightWall
    {
        type            zeroGradient;
    }
    lowerWall
    {
        type            zeroGradient;
    }
    atmosphere
    {
        type            inletOutlet;
        inletValue      uniform 0;
        value           nonuniform List<scalar> 
46
(
2.66086e-07
1.81453e-07
4.4591e-08
6.10992e-09
1.31669e-09
1.91419e-10
1.31368e-11
5.09375e-13
0
0
0
0
0
0
0
0
0
0
0
4.88988e-16
4.35826e-16
2.36238e-16
6.03083e-16
2.60445e-15
5.22912e-15
1.15103e-14
2.03443e-14
0
0
0
0
0
0
0
0
0
0
0
0
0
0
0
0
1.62505e-08
2.48431e-08
4.28864e-09
)
;
    }
    defaultFaces
    {
        type            empty;
    }
}


// ************************************************************************* //
