/*--------------------------------*- C++ -*----------------------------------*\
| =========                 |                                                 |
| \\      /  F ield         | OpenFOAM: The Open Source CFD Toolbox           |
|  \\    /   O peration     | Version:  2312                                  |
|   \\  /    A nd           | Website:  www.openfoam.com                      |
|    \\/     M anipulation  |                                                 |
\*---------------------------------------------------------------------------*/
FoamFile
{
    version     2.0;
    format      ascii;
    arch        "LSB;label=32;scalar=64";
    class       volScalarField;
    location    "3.25";
    object      alpha.water_0;
}
// * * * * * * * * * * * * * * * * * * * * * * * * * * * * * * * * * * * * * //

dimensions      [0 0 0 0 0 0 0];

internalField   nonuniform List<scalar> 
2268
(
2.73029e-07
6.7467e-08
1.76213e-09
5.45042e-10
2.43714e-10
1.32304e-10
5.90842e-11
4.55081e-11
3.82231e-11
3.69082e-11
3.82275e-11
4.28462e-11
5.10581e-11
6.28976e-11
7.90249e-11
1.01509e-10
1.48786e-10
2.21807e-10
3.24634e-10
5.33208e-10
8.96551e-10
1.22691e-09
1.38561e-09
4.45889e-07
1.46735e-07
1.62184e-08
2.58243e-09
1.60333e-10
1.37509e-10
1.05182e-10
8.29213e-11
6.65452e-11
5.46096e-11
5.50923e-11
6.42066e-11
9.22386e-11
1.036e-10
1.28873e-10
1.77485e-10
2.44084e-10
4.00137e-10
6.33339e-10
9.94915e-10
1.73455e-09
2.23148e-09
1.69361e-09
4.34131e-07
7.67118e-08
3.03696e-09
1.60593e-10
2.43223e-10
2.67025e-10
2.57803e-10
1.91768e-10
1.466e-10
1.26609e-10
1.10514e-10
1.41795e-10
2.02254e-10
1.15406e-10
1.62509e-10
5.71769e-10
2.54325e-10
2.77386e-10
4.43263e-10
8.7274e-10
1.96173e-09
2.98985e-09
1.53328e-09
5.27424e-08
2.93407e-08
6.1339e-10
1.59399e-10
1.66369e-10
1.75628e-10
1.91873e-10
3.19118e-10
4.47925e-10
4.19767e-10
2.80987e-10
1.13432e-10
9.18685e-11
4.67107e-11
3.62286e-11
3.63319e-11
3.62285e-11
3.63318e-11
3.62284e-11
3.63318e-11
4.79778e-11
4.63611e-11
4.17641e-11
2.11894e-08
4.07043e-09
6.01973e-11
3.58328e-11
3.62276e-11
4.47556e-11
1.72488e-11
1.18618e-11
-8.02723e-14
-4.46202e-13
1.17497e-28
-1.05579e-13
2.36873e-29
7.86147e-18
0.00537885
0.0281564
0.0366607
0.0360675
0.0335249
0.0328235
0.0237239
0.00952717
4.16879e-11
3.29736e-22
-1.49684e-13
-7.59222e-21
5.25386e-20
-6.65189e-20
-9.46854e-21
6.82792e-21
1.07501e-17
0.0157728
0.0711393
0.141724
0.245049
0.361732
0.483056
0.591312
0.650144
0.677984
0.685895
0.676356
0.676211
0.688306
0.68799
0.595727
0.00267945
0.00853553
0.0293432
0.0696052
0.137299
0.235764
0.336494
0.480165
0.630585
0.74633
0.860162
0.939301
0.964462
0.949613
0.95901
0.980666
0.980668
0.980031
0.965991
0.918438
0.890722
0.886397
0.902833
0.402367
0.463868
0.595813
0.722973
0.831795
0.896552
0.964121
0.996472
0.999507
0.999201
0.999175
0.999471
0.982786
0.939752
0.940712
0.980668
0.980665
0.978175
0.869867
0.808115
0.808503
0.894758
0.95275
0.017806
0.0178576
0.0120723
0.00683938
0.00965638
0.0193684
0.019362
0.0187054
0.0168955
0.0153804
0.0145121
0.0145425
0.0126458
0.00964049
0.00597149
0.0040051
0.00628892
0.00769355
0.00805778
0.0103603
0.00987301
0.00794939
0.00684387
0.00684277
0.00735225
0.00732595
0.0089448
0.0110592
0.0070807
0.00396449
0.00396528
0.00397175
0.00397844
0.00398422
0.00398979
0.0039967
0.004003
0.00400654
0.0113205
0.0110629
0.00684387
0.00683938
0.00684387
0.058674
0.105245
0.0661883
0.0390751
0.035281
0.0543936
0.032945
0.0146094
0.0283841
0.0569527
0.0672844
0.119234
0.191343
0.24572
0.295204
0.026603
0.0249131
0.160523
0.544096
0.700083
0.66033
0.42883
0.36337
0.38818
0.552039
0.550487
0.562904
0.595888
0.660601
0.662009
0.585855
0.609197
0.701775
0.547118
0.315923
0.475019
0.837055
0.877083
0.876523
0.749879
0.595055
0.415178
0.779497
0.890862
0.89086
0.890891
0.890886
0.888102
0.889009
0.886194
0.886185
0.88725
0.512332
0.550688
0.852451
0.859505
0.557768
0.433842
0.422327
0.418026
0.417425
0.800835
0.89086
0.89087
0.890868
0.889185
0.889121
0.88906
0.888988
0.888891
0.887286
0.482384
0.587026
0.927769
0.856213
0.66294
0.690751
0.687875
0.52991
0.417408
0.525269
0.833741
0.890862
0.885467
0.863834
0.84648
0.861754
0.887918
0.887105
0.865258
0.479466
0.507113
0.945055
0.961668
0.961677
0.961667
0.959526
0.940082
0.707501
0.503532
0.661654
0.862519
0.851949
0.80995
0.816594
0.829114
0.794521
0.584581
0.265072
0.98053
0.992855
0.996753
0.999411
0.999555
0.999555
0.999555
0.999555
0.999555
0.999555
0.999555
0.999555
0.995723
0.945172
0.940055
0.979986
0.980668
0.966272
0.814015
0.810643
0.894093
0.985935
0.974469
0.999118
0.999164
0.999165
0.999162
0.997466
0.997491
0.999555
0.999555
0.999017
0.998546
0.999555
0.999555
0.999434
0.988373
0.952041
0.976086
0.980665
0.980601
0.964155
0.980782
0.991132
0.991428
0.991385
0.966735
0.970199
0.985891
0.993865
0.996725
0.996969
0.988568
0.981478
0.965317
0.962489
0.976904
0.954718
0.953406
0.976026
0.975173
0.975525
0.95503
0.924939
0.964082
0.950386
0.911922
0.935991
0.97478
0.344613
0.351192
0.417972
0.536925
0.593748
0.617351
0.669161
0.637564
0.577481
0.784961
0.881116
0.900412
0.872949
0.801555
0.807874
0.887595
0.901998
0.798002
0.550502
0.28832
0.21612
0.302469
0.413304
0.000114506
0.000114388
0.000114391
0.0148868
0.0516331
0.0741455
0.0970578
0.098826
0.101634
0.225365
0.26813
0.250258
0.159852
0.125331
0.158212
0.248519
0.262613
0.125899
0.0247664
5.54107e-13
-1.29091e-07
-1.7658e-08
-5.35449e-08
0.00123646
0.000740292
0.000114388
0.000114391
0.0159398
0.0516342
0.0153497
6.51606e-05
-6.74074e-07
-8.59706e-20
-9.08846e-20
8.29954e-20
-5.0656e-08
-1.16551e-07
-5.26261e-09
4.46157e-19
1.01551e-19
5.65554e-20
5.94116e-20
2.50524e-08
0.000554596
0.00125205
0.000464326
0.00409919
0.00229609
0.000118455
0.00410968
0.0331749
0.051369
0.0270619
0.000406527
0.000277608
0.000161891
7.34572e-05
7.08725e-05
2.69395e-05
2.56687e-05
1.16427e-06
5.12683e-44
7.8306e-15
3.88547e-07
5.19268e-05
0.000586781
0.000932573
0.000100865
0.000262377
0.00410578
0.00409689
0.00324976
0.00224435
0.00644976
0.0159662
0.0129661
0.00225176
0.00178141
0.00310628
0.00148267
2.54264e-05
4.67079e-05
0.000153806
0.000339464
0.00049502
0.000593199
0.000692057
0.000913719
0.00160077
0.0018245
0.00182874
0.00632871
0.00117605
0.00106602
0.000791174
0.000125247
7.49101e-08
3.63216e-20
6.74675e-06
0.000421004
0.00252398
0.00311361
0.00194809
2.05653e-05
2.05606e-05
0.00108742
0.0064504
0.00762047
0.0076241
0.00723314
0.00257863
8.65336e-05
0.000685566
0.00925571
0.0207736
1.11097e-08
5.87956e-08
2.73335e-07
9.24046e-08
2.85015e-09
-1.56301e-15
3.88395e-23
2.02071e-18
0.000248175
0.00100361
0.00150259
0.000719335
2.05667e-05
2.53992e-05
0.00246721
0.00619067
0.00635197
0.00316285
0.000466257
8.59226e-05
0.00174719
0.0125317
0.0207631
1.11828e-08
8.34347e-09
4.16706e-08
3.81465e-08
3.31483e-08
8.21242e-12
2.02267e-18
3.12174e-07
6.94655e-07
7.21353e-07
1.84218e-05
0.000137614
9.0251e-05
2.25492e-05
2.16812e-07
6.62735e-09
6.62833e-09
6.62191e-09
1.43614e-07
8.55676e-05
5.51185e-05
0.00052973
0.00630326
1.19094e-08
8.32774e-09
4.11141e-09
1.32596e-08
2.75764e-07
4.83459e-07
2.63011e-07
6.30586e-07
6.27152e-06
8.68963e-06
8.65188e-06
1.11152e-06
9.28812e-06
8.10549e-06
4.68444e-06
3.03527e-07
7.28291e-09
6.77136e-09
7.45663e-09
4.27091e-06
8.4637e-06
4.70381e-06
4.77607e-06
1.16045e-08
6.6015e-09
2.46632e-09
7.83574e-08
1.44195e-06
1.58071e-06
1.36992e-06
5.34313e-07
2.56669e-06
6.18368e-06
4.90988e-06
1.11762e-06
4.29245e-07
7.12624e-07
6.18628e-07
9.84696e-08
5.38387e-09
7.79087e-09
8.41491e-09
2.0021e-07
3.43796e-07
2.18436e-05
2.3028e-05
1.13067e-08
4.90966e-09
2.46277e-09
4.61077e-07
1.50592e-06
1.60042e-06
1.58486e-06
3.07688e-07
6.80596e-08
8.62725e-08
8.30176e-08
3.52704e-08
3.87807e-21
8.55544e-12
3.13111e-17
1.08879e-09
1.55429e-10
1.25073e-10
3.32246e-05
3.75445e-05
4.83426e-05
5.88709e-05
5.92641e-05
1.10627e-08
4.34955e-09
2.45899e-09
1.95212e-07
6.51064e-07
5.92718e-07
5.76965e-07
1.46422e-07
7.46698e-06
1.26414e-05
2.06639e-05
3.45019e-05
3.46403e-05
4.48125e-05
4.4934e-05
3.20618e-05
8.00948e-06
3.96387e-06
9.25321e-06
1.50971e-05
1.88589e-05
3.03637e-05
5.88992e-05
1.0786e-08
5.17764e-09
2.45535e-09
1.22034e-09
1.05302e-09
1.05539e-09
3.54699e-06
2.64118e-05
2.98137e-05
2.98683e-05
1.81703e-05
2.96746e-05
3.66039e-05
3.56791e-05
1.85264e-05
5.42939e-06
5.56287e-07
1.7344e-07
1.68868e-07
4.32334e-07
4.0404e-07
2.19018e-06
9.83495e-06
1.08991e-08
5.2762e-09
2.32067e-09
1.05896e-09
1.3905e-09
3.50889e-08
2.25554e-06
9.79189e-06
1.25822e-05
9.46871e-06
4.7597e-07
2.03955e-06
3.89632e-06
1.20921e-06
5.2137e-09
9.19603e-10
9.1997e-10
9.19604e-10
9.19965e-10
1.65544e-08
1.22018e-07
2.66009e-07
1.10386e-06
1.10256e-08
5.71572e-09
3.83827e-09
3.02226e-09
5.23889e-09
2.92683e-08
9.4874e-08
1.18501e-09
1.18501e-09
1.18531e-09
1.18517e-09
1.18545e-09
1.18546e-09
1.18578e-09
1.66358e-09
1.86638e-09
1.91928e-09
1.50219e-09
9.21665e-10
1.69881e-10
1.40463e-10
1.46928e-10
7.0947e-07
1.21342e-08
5.35744e-09
3.84915e-09
3.71259e-09
5.03568e-09
6.36882e-09
4.87529e-09
3.15692e-09
1.67209e-09
1.18537e-09
2.56592e-09
2.80728e-09
3.09481e-09
3.10232e-09
3.90411e-09
4.63295e-09
3.91134e-09
2.50511e-09
1.36333e-09
1.05571e-09
8.62405e-10
7.12626e-10
3.80293e-09
1.26115e-08
4.47645e-09
2.67133e-09
1.53318e-09
1.7069e-09
2.1515e-09
2.49687e-09
2.16268e-09
1.53556e-09
1.19307e-09
1.37146e-09
1.42637e-09
1.36377e-09
1.25444e-09
1.48982e-09
1.84163e-09
2.13315e-09
1.99425e-09
1.59671e-09
1.1435e-09
8.62972e-10
9.26717e-10
9.02701e-10
1.59802e-08
3.20599e-09
1.85176e-09
5.424e-10
3.02626e-10
4.4819e-10
5.75868e-10
5.87281e-10
5.61827e-10
5.79843e-10
6.00295e-10
5.95523e-10
5.64705e-10
5.92389e-10
7.50012e-10
9.19293e-10
1.01966e-09
1.11136e-09
1.03663e-09
7.04286e-10
5.58624e-10
6.14721e-10
8.48459e-10
1.87807e-08
2.32137e-09
1.18904e-09
4.66468e-10
1.92416e-10
1.35971e-10
1.43379e-10
1.59028e-10
1.9348e-10
2.17953e-10
2.37025e-10
2.45329e-10
2.63529e-10
2.97604e-10
3.6819e-10
4.42955e-10
4.83236e-10
4.98677e-10
4.95486e-10
3.87728e-10
2.95497e-10
2.98772e-10
4.11758e-10
4.60926e-08
1.14605e-09
9.15611e-10
4.56713e-10
1.89571e-10
1.12816e-10
9.20933e-11
8.35522e-11
8.57669e-11
9.33288e-11
9.84415e-11
1.02309e-10
1.1418e-10
1.29012e-10
1.53375e-10
1.78645e-10
1.96932e-10
2.12144e-10
2.16477e-10
1.76753e-10
1.45176e-10
1.53277e-10
1.93626e-10
5.75725e-08
1.12874e-09
6.7221e-10
3.80853e-10
1.9319e-10
1.18936e-10
8.86082e-11
6.85148e-11
5.40497e-11
4.68414e-11
4.27865e-11
4.19928e-11
4.48534e-11
4.96679e-11
5.58746e-11
6.27973e-11
6.90147e-11
7.39948e-11
7.62831e-11
7.11648e-11
6.77248e-11
7.34776e-11
9.31562e-11
7.34425e-08
5.30807e-10
3.1707e-10
2.69013e-10
2.04628e-10
1.56146e-10
1.22573e-10
9.20044e-11
6.38352e-11
4.19581e-11
2.91516e-11
2.13275e-11
1.788e-11
1.69916e-11
1.80823e-11
1.9743e-11
2.1593e-11
2.3321e-11
2.45415e-11
2.58228e-11
2.80751e-11
3.33477e-11
4.3794e-11
7.66713e-08
2.07503e-09
2.16e-10
2.68344e-10
2.51666e-10
2.21553e-10
1.85294e-10
1.41267e-10
9.55817e-11
6.24797e-11
3.98289e-11
2.34329e-11
1.29956e-11
7.92104e-12
6.0999e-12
5.73984e-12
5.98722e-12
6.49863e-12
7.14272e-12
8.54607e-12
1.02551e-11
1.39453e-11
1.92286e-11
1.06096e-07
5.89917e-09
2.14747e-10
3.1067e-10
3.305e-10
3.12444e-10
2.77316e-10
2.17847e-10
1.44991e-10
1.0032e-10
6.67885e-11
3.90395e-11
1.97368e-11
8.9284e-12
3.92872e-12
2.12156e-12
1.6082e-12
1.64389e-12
1.91601e-12
2.57551e-12
3.45855e-12
5.13194e-12
7.69749e-12
1.35017e-07
1.68865e-08
2.19763e-10
3.64786e-10
4.2711e-10
4.23892e-10
3.9318e-10
3.26254e-10
1.98278e-10
1.4929e-10
1.0641e-10
6.58745e-11
3.47151e-11
1.55031e-11
5.92102e-12
2.06815e-12
7.87989e-13
4.65697e-13
4.87007e-13
7.05564e-13
1.02768e-12
1.78825e-12
2.84866e-12
1.55626e-07
3.1353e-08
2.25893e-10
3.61258e-10
4.63902e-10
4.71443e-10
4.90461e-10
4.52517e-10
2.50284e-10
2.02125e-10
1.5372e-10
1.00876e-10
5.65794e-11
2.6763e-11
1.05107e-11
3.5224e-12
1.04444e-12
3.12761e-13
1.48239e-13
1.78371e-13
3.04989e-13
5.51134e-13
9.76625e-13
1.60218e-07
3.72046e-08
2.02606e-10
2.67874e-10
2.60909e-10
2.60568e-10
4.56745e-10
4.46143e-10
2.85188e-10
2.48537e-10
2.02137e-10
1.39305e-10
8.24027e-11
4.11599e-11
1.71755e-11
6.16549e-12
1.86956e-12
4.77127e-13
1.13077e-13
5.21271e-14
7.55009e-14
1.68681e-13
3.11689e-13
1.67123e-07
6.06626e-08
2.02573e-10
3.43565e-10
2.60749e-10
7.11091e-09
1.08571e-08
5.17166e-10
2.92408e-10
2.98958e-10
2.49291e-10
1.77774e-10
1.094e-10
5.67797e-11
2.57176e-11
9.8341e-12
3.15307e-12
8.42921e-13
2.0173e-13
3.25987e-14
2.24832e-14
4.33098e-14
9.08579e-14
1.70911e-07
1.1242e-07
2.026e-10
1.47741e-09
7.13349e-08
1.34379e-07
5.33561e-08
6.47238e-09
4.13198e-10
3.22079e-10
2.82207e-10
2.07838e-10
1.33205e-10
7.18318e-11
3.46117e-11
1.41481e-11
4.83265e-12
1.347e-12
3.14323e-13
6.04148e-14
9.3847e-15
1.0626e-14
2.42601e-14
1.70935e-07
1.5665e-07
3.03118e-08
5.00059e-10
1.05064e-07
2.42941e-07
4.68404e-07
5.75205e-08
2.13548e-09
3.94248e-10
2.90892e-10
2.20147e-10
1.4401e-10
7.83945e-11
3.9053e-11
1.74979e-11
6.7132e-12
2.00369e-12
5.08223e-13
1.00359e-13
1.04252e-14
2.96966e-15
6.1992e-15
1.6769e-07
1.72062e-07
6.4703e-08
5.03828e-10
3.67469e-08
4.66467e-07
1.43794e-06
7.20087e-07
1.74047e-08
1.04675e-09
2.91474e-10
2.15833e-10
1.4239e-10
7.84859e-11
3.9491e-11
1.82083e-11
7.66443e-12
2.61541e-12
6.96079e-13
1.48357e-13
2.38206e-14
1.54179e-15
1.35512e-15
7.02519e-08
1.72145e-07
6.24426e-08
9.12191e-10
6.56047e-10
4.7708e-07
1.4377e-06
1.25988e-06
6.37518e-08
4.03709e-09
3.56774e-10
1.94566e-10
1.28988e-10
6.9422e-11
3.4662e-11
1.66423e-11
7.40292e-12
2.77916e-12
8.17341e-13
1.84297e-13
3.37497e-14
1.67455e-15
3.46903e-16
3.30696e-08
1.13966e-07
4.00849e-08
2.86412e-09
6.59802e-10
3.62275e-07
1.43386e-06
6.19569e-07
5.98497e-08
5.29928e-09
3.87249e-10
1.60008e-10
1.0433e-10
5.59449e-11
2.69199e-11
1.26582e-11
5.83202e-12
2.40663e-12
7.9848e-13
1.97351e-13
3.72649e-14
3.02312e-15
1.43958e-16
1.11169e-08
4.12082e-08
2.26209e-08
2.04836e-09
6.54231e-10
1.7693e-07
8.94508e-07
2.14812e-07
2.08914e-08
3.02175e-09
2.68865e-10
1.17631e-10
7.57791e-11
3.94251e-11
1.78401e-11
7.93558e-12
3.65937e-12
1.60244e-12
6.00195e-13
1.65739e-13
3.37688e-14
3.64403e-15
1.28293e-16
5.48456e-09
1.53462e-08
3.06504e-09
1.52808e-09
8.62699e-10
1.31684e-08
4.09131e-10
1.46545e-08
9.31009e-09
1.4331e-09
1.70397e-10
7.38623e-11
4.72122e-11
2.39046e-11
1.00547e-11
4.0664e-12
1.74239e-12
7.79854e-13
3.19233e-13
1.04285e-13
2.30165e-14
3.36435e-15
1.45216e-16
2.52637e-09
2.40178e-09
1.57246e-09
1.57332e-09
1.75416e-09
1.37116e-09
4.1261e-10
1.15156e-10
1.04371e-10
1.30694e-10
5.157e-11
3.68287e-11
2.43361e-11
1.20227e-11
4.66302e-12
1.64033e-12
6.09282e-13
2.48018e-13
1.12044e-13
4.5764e-14
1.28424e-14
1.79757e-15
1.3314e-16
1.29888e-07
1.63448e-08
1.44345e-08
6.22093e-09
5.90506e-09
3.50802e-09
1.31433e-09
3.06654e-10
1.47989e-10
6.19421e-11
2.00755e-11
1.50784e-11
1.00769e-11
4.94353e-12
1.79123e-12
5.25663e-13
1.51486e-13
5.04104e-14
2.24221e-14
1.33615e-14
4.29253e-15
8.33206e-16
9.93153e-17
3.7586e-07
2.62212e-07
4.66071e-08
1.11288e-08
5.04405e-09
2.17347e-09
6.48713e-10
1.19727e-10
3.92948e-11
1.21844e-11
4.91377e-12
4.13909e-12
2.95643e-12
1.44994e-12
4.89892e-13
1.20399e-13
2.48358e-14
5.56556e-15
2.54678e-15
2.41206e-15
1.07952e-15
3.29606e-16
6.02456e-17
3.7586e-07
1.94468e-07
3.34296e-08
6.12119e-09
1.62138e-09
4.34387e-10
5.661e-11
5.09178e-12
7.53015e-13
1.44489e-13
5.63516e-13
6.01769e-13
4.52654e-13
2.23983e-13
7.17036e-14
1.47847e-14
2.14119e-15
3.08669e-16
1.5762e-16
2.72457e-16
2.4751e-16
1.03544e-16
2.87825e-17
0.923999
0.839651
0.797041
0.77726
0.986957
0.98852
0.977695
0.957811
0.98833
0.991272
0.991567
0.991207
0.663181
0.735951
0.765832
0.779722
2.60967e-11
2.60682e-11
2.60258e-11
0.0288834
3.72424e-05
4.1782e-05
1.58838e-06
8.12235e-06
0.00136976
0.00198798
0.000796795
3.77486e-05
0.0178397
0.0207177
0.0105998
0.00538241
0.02075
0.0207508
0.0207177
0.0207183
0.0207741
0.0207384
0.0207249
0.0207285
0.0207474
0.0207638
0.0207315
0.00817726
0.00114173
0.00195096
0.00165175
0.000556085
3.83692e-07
6.10232e-07
5.04833e-07
3.09883e-07
5.94476e-05
5.4207e-05
1.50611e-05
1.39414e-07
5.91512e-05
5.78409e-05
5.4217e-05
4.85154e-06
2.49144e-05
3.15504e-05
1.61506e-05
1.74563e-07
1.71688e-06
1.57323e-06
9.78511e-07
1.46477e-07
8.4158e-07
4.01656e-07
4.94735e-08
3.78544e-08
5.53866e-08
3.16273e-08
3.18408e-08
5.4205e-07
2.00266e-09
5.34145e-09
3.19001e-08
3.25521e-08
1.56698e-09
3.64776e-09
6.33868e-09
1.20857e-08
7.08176e-10
1.01491e-09
2.11326e-09
3.93772e-09
2.77977e-10
3.61261e-10
5.69398e-10
8.48639e-10
1.2858e-10
1.50346e-10
1.92791e-10
2.58014e-10
5.86526e-11
7.25709e-11
9.39102e-11
1.0792e-10
2.71248e-11
3.39815e-11
4.13824e-11
5.24487e-11
1.15868e-11
1.42515e-11
1.92948e-11
2.20042e-11
4.35946e-12
5.75658e-12
7.18034e-12
9.41902e-12
1.58581e-12
2.06315e-12
2.83841e-12
3.36541e-12
5.44176e-13
7.33815e-13
9.42326e-13
1.26109e-12
1.73298e-13
2.2902e-13
3.31101e-13
4.00809e-13
4.94962e-14
7.47299e-14
9.70667e-14
1.34573e-13
1.30085e-14
1.9693e-14
2.95582e-14
3.71032e-14
3.58821e-15
5.30531e-15
7.63154e-15
1.11449e-14
6.80296e-16
1.10827e-15
1.90098e-15
2.481e-15
1.59374e-16
2.59649e-16
4.22061e-16
6.95299e-16
3.06442e-17
5.05601e-17
1.03702e-16
1.51462e-16
7.32755e-18
1.01611e-17
1.82382e-17
3.45762e-17
1.84606e-18
1.74447e-18
3.42953e-18
5.38069e-18
1.28918e-18
3.62613e-19
4.64891e-19
1.01809e-18
1.31824e-18
1.38649e-19
8.54028e-20
1.74593e-19
1.26572e-18
9.06983e-20
2.01468e-20
2.59467e-20
0.688318
0.628036
0.746449
0.924744
0.961691
0.961653
0.961642
0.954471
0.831829
0.502766
0.59506
0.688629
0.424464
0.360088
0.370951
0.263799
0.131559
0.026775
-6.16978e-23
0.870822
0.6921
0.703692
0.866346
0.958405
0.934167
0.894738
0.852663
0.563734
0.12922
0.12197
0.136443
0.0539986
0.0129803
-1.00462e-06
-6.15841e-06
-4.1248e-08
2.71133e-22
-2.60421e-22
0.973487
0.922161
0.915624
0.891835
0.707688
0.376651
0.251178
0.353958
0.443491
0.0945137
0.087497
0.0866862
0.0854198
0.0162781
0.00286178
0.00463161
0.00320817
0.0023102
0.00153338
0.79695
0.801481
0.635075
0.260332
0.00566955
2.91206e-07
3.81576e-07
0.164594
0.461539
0.470546
0.470935
0.350253
0.0339485
0.000727155
0.00257226
0.00518658
0.00628244
0.00628288
0.0032325
0.042615
0.0297035
-2.38506e-06
4.41749e-23
7.45883e-10
7.86444e-05
5.2205e-05
4.94913e-05
0.0893821
0.29768
0.256203
0.0427038
0.00263161
0.000651195
0.00143374
0.003528
0.00347311
0.00549323
0.00173794
8.66581e-08
9.17943e-07
5.87446e-06
3.35749e-05
0.000143087
0.000360243
0.000329251
9.42171e-05
1.77868e-06
1.77882e-06
1.77868e-06
1.77896e-06
1.06262e-05
0.000166855
0.00292149
0.00425692
0.00163142
0.00155146
0.000715275
3.67718e-09
1.6172e-09
4.27418e-05
7.09555e-05
6.8282e-05
7.16795e-05
0.000134774
0.000160569
0.000105333
8.68496e-05
6.01778e-05
8.08245e-05
7.01091e-05
6.178e-05
0.00200972
0.00425211
0.00252032
2.46019e-05
2.87786e-08
0.00241032
0.000213775
0.00010662
0.000352423
0.000205096
0.000366414
0.00141523
0.0014948
0.00148492
0.00150204
0.00113743
0.000937277
0.000719758
0.00024914
0.000235406
0.00188544
0.00164586
0.000304542
2.844e-08
0.0183439
0.00185869
0.000859785
0.00358331
0.00327843
0.00475364
0.00445369
0.00345796
0.0025251
0.00223798
0.00138534
0.000806508
0.000471103
0.000168192
8.85047e-06
4.9316e-08
9.93441e-05
0.000112933
1.19705e-05
0.0176038
0.00681183
0.00696217
0.00914402
0.00914397
0.00566456
0.00251036
0.000524566
5.66837e-05
3.4988e-07
3.57062e-07
5.03535e-07
6.25064e-07
2.26772e-06
1.48008e-06
3.52472e-08
3.52815e-08
6.73868e-08
2.9315e-06
0.00526263
0.00832087
0.00898365
0.00886364
0.00270054
1.61361e-07
1.91573e-07
1.62272e-07
1.96762e-07
9.59088e-07
4.46522e-07
1.11236e-05
7.23851e-05
8.98358e-05
5.44365e-05
1.11142e-05
7.93452e-08
2.87686e-07
7.14606e-08
0.00221782
0.00698156
0.00661549
0.000462975
3.70109e-07
3.03088e-06
1.08293e-05
1.56916e-05
1.93834e-05
2.3183e-05
9.60653e-06
9.93555e-06
0.000120435
0.000167098
0.000167206
0.000166419
3.35033e-05
7.09704e-08
7.14329e-08
5.52037e-07
2.79528e-09
2.77181e-09
2.79495e-09
4.5287e-08
2.17472e-06
2.97854e-05
4.5459e-05
4.76204e-05
5.46684e-05
5.4109e-05
9.97691e-06
7.82768e-08
1.48689e-05
7.93554e-05
0.000165881
0.000150601
4.14612e-06
7.14156e-08
1.25044e-07
3.66334e-08
2.79528e-09
3.4434e-09
3.6622e-09
5.85925e-09
1.24095e-05
2.03467e-05
1.48193e-06
4.95055e-06
2.22162e-05
1.5635e-05
7.74446e-08
7.82276e-08
3.46149e-06
2.42331e-05
0.000102242
1.3241e-05
9.477e-08
7.3061e-08
9.63841e-08
6.53681e-08
1.53221e-08
7.8452e-08
2.42482e-06
2.16479e-07
1.32514e-07
2.11605e-07
1.80079e-06
1.53341e-06
1.51289e-06
1.54153e-06
1.15775e-07
1.29192e-06
2.61186e-07
8.00257e-07
2.62649e-05
1.01696e-07
7.42564e-08
8.80157e-08
1.93598e-07
2.24589e-07
3.95024e-06
1.3927e-05
6.78053e-06
1.32622e-07
1.49723e-07
1.05019e-05
2.33931e-05
1.45561e-05
4.85672e-06
5.96017e-06
4.47437e-06
2.61936e-07
4.05219e-07
2.35104e-06
6.78657e-07
7.39787e-08
6.61189e-06
2.98546e-05
3.17948e-05
2.12653e-05
1.40231e-05
3.38534e-06
1.40191e-07
8.85645e-07
1.44818e-05
2.68076e-05
2.67899e-05
2.67728e-05
2.67522e-05
1.11836e-05
3.73719e-07
3.78688e-06
9.57298e-06
4.80497e-06
1.79161e-05
3.48953e-05
3.49143e-05
2.93086e-05
1.6228e-05
2.59552e-07
1.38619e-07
3.12583e-07
8.44752e-07
1.29097e-06
2.13262e-05
2.67619e-05
2.67521e-05
2.67355e-05
1.01989e-05
5.11472e-07
9.18907e-06
2.20708e-05
2.06236e-05
8.32288e-06
1.44735e-05
1.20642e-05
5.20681e-06
5.8956e-07
9.60133e-07
1.5538e-06
1.55935e-06
7.20648e-07
2.51153e-07
2.48074e-07
1.93537e-05
2.61254e-05
9.58506e-06
4.1388e-09
1.37764e-06
1.06162e-05
2.20591e-05
2.20401e-05
1.66759e-08
6.03287e-08
3.18468e-08
3.99621e-08
2.20776e-07
6.7422e-07
5.68126e-07
8.71775e-08
7.56583e-09
2.61118e-07
5.63832e-07
2.30711e-07
1.64069e-07
2.50529e-08
4.12928e-09
6.57411e-07
2.08337e-05
2.20583e-05
8.88135e-06
1.65234e-08
1.37351e-08
2.61897e-08
5.01671e-08
5.77551e-08
1.35869e-08
5.34434e-09
4.95508e-09
6.92456e-09
9.70718e-09
1.01341e-08
8.9347e-09
8.35996e-09
1.14353e-08
4.09768e-09
3.74409e-06
2.14585e-05
7.4651e-06
3.05054e-06
4.70791e-09
2.72421e-09
4.43527e-09
4.92502e-09
3.02758e-09
2.89475e-09
4.90728e-09
5.71126e-09
7.14332e-09
1.51267e-08
2.45823e-08
2.45828e-08
1.48494e-08
6.60122e-09
4.30231e-09
2.51257e-06
2.14529e-05
3.25027e-06
3.28735e-06
9.63951e-10
7.13926e-10
7.8723e-10
9.08339e-10
1.4324e-09
2.52928e-09
3.68812e-09
4.97996e-09
6.31725e-09
1.03485e-08
1.76545e-08
2.12137e-08
1.30352e-08
4.64758e-09
4.61927e-09
1.60364e-06
7.67299e-06
3.85425e-06
7.84653e-06
2.76736e-10
3.31643e-10
4.06487e-10
5.15559e-10
7.83141e-10
1.21688e-09
1.76425e-09
2.35472e-09
3.32655e-09
6.50114e-09
1.13555e-08
1.33628e-08
2.36079e-08
1.9247e-08
7.31476e-09
2.42168e-06
1.8955e-06
4.54492e-06
1.59863e-05
1.28457e-10
1.7372e-10
2.37012e-10
3.18911e-10
4.39741e-10
6.2697e-10
9.69429e-10
1.60465e-09
2.83483e-09
4.67151e-09
8.07715e-09
1.10895e-08
2.55947e-08
4.5566e-08
1.98907e-07
8.52446e-07
2.0221e-07
2.72331e-06
1.59827e-05
5.91587e-11
8.85719e-11
1.29987e-10
1.85012e-10
2.65174e-10
3.95499e-10
6.3403e-10
1.05594e-09
1.82179e-09
3.10575e-09
5.74079e-09
1.40629e-08
2.93677e-08
8.29079e-08
1.20574e-07
9.83566e-08
1.82273e-07
4.73599e-08
1.57449e-05
2.7418e-11
4.15288e-11
6.31516e-11
9.47914e-11
1.42145e-10
2.1699e-10
3.59419e-10
6.18839e-10
1.08928e-09
1.86485e-09
3.24791e-09
6.24099e-09
8.64858e-09
1.57018e-08
1.53934e-08
2.72713e-08
3.82035e-08
4.75827e-08
4.86324e-06
1.08895e-11
1.76334e-11
2.71111e-11
4.20771e-11
6.51356e-11
1.01934e-10
1.7272e-10
3.08085e-10
5.56913e-10
9.68232e-10
1.58972e-09
2.37581e-09
3.48424e-09
5.15554e-09
1.5307e-08
9.76355e-09
6.01385e-09
5.71145e-09
1.33104e-06
4.27164e-12
6.7229e-12
1.05547e-11
1.63859e-11
2.59124e-11
4.16096e-11
7.30531e-11
1.38218e-10
2.53532e-10
4.69607e-10
7.80631e-10
1.17025e-09
1.90488e-09
1.89462e-09
8.20126e-09
8.27296e-09
5.41908e-09
5.71822e-09
1.08239e-06
1.53935e-12
2.46161e-12
3.83486e-12
6.0481e-12
9.42026e-12
1.54687e-11
2.6433e-11
5.11691e-11
1.03862e-10
2.20168e-10
4.05706e-10
5.56092e-10
6.64839e-10
4.21931e-10
5.65417e-10
3.27092e-09
5.40564e-09
2.35148e-08
2.61771e-08
5.12641e-13
8.24174e-13
1.32172e-12
2.04687e-12
3.22306e-12
5.23137e-12
9.22007e-12
1.75476e-11
3.54445e-11
5.77145e-11
9.98444e-11
2.20062e-10
2.4274e-10
1.01755e-10
9.89342e-11
7.9227e-10
4.24973e-09
3.02821e-08
4.82784e-09
1.67792e-13
2.71916e-13
4.22644e-13
6.3368e-13
9.62922e-13
1.50376e-12
2.49769e-12
4.25793e-12
6.63712e-12
5.89374e-12
1.01034e-11
3.20289e-11
8.55329e-11
5.20719e-11
7.44126e-11
3.66939e-10
1.79348e-09
1.20741e-08
1.87721e-09
5.09565e-14
8.24356e-14
1.24561e-13
1.82723e-13
2.65649e-13
3.99006e-13
6.0957e-13
9.49883e-13
1.33062e-12
1.34502e-12
7.8192e-13
3.36191e-12
1.56298e-11
3.01597e-11
2.83291e-11
1.68981e-10
5.25537e-10
1.28235e-09
1.26238e-09
1.40898e-14
2.37191e-14
3.50356e-14
5.0016e-14
7.03366e-14
9.9013e-14
1.42605e-13
2.08481e-13
2.77239e-13
2.82314e-13
2.09657e-13
4.65428e-13
2.79454e-12
1.20926e-11
1.52678e-11
2.6507e-11
1.74911e-10
2.91208e-10
6.68933e-10
3.93532e-15
6.3374e-15
9.47384e-15
1.32555e-14
1.79861e-14
2.4255e-14
3.38279e-14
4.7468e-14
6.20679e-14
6.82339e-14
6.09854e-14
1.23371e-13
6.17387e-13
3.31535e-12
6.87887e-12
7.77027e-12
2.17271e-11
9.65095e-11
2.39056e-10
9.42908e-16
1.62174e-15
2.43518e-15
3.37315e-15
4.4919e-15
6.03718e-15
8.32927e-15
1.18546e-14
1.62654e-14
2.02032e-14
2.34422e-14
3.71537e-14
1.37431e-13
4.89877e-13
1.95532e-12
3.85966e-12
3.68744e-12
2.22289e-11
6.17867e-11
2.22274e-16
3.83875e-16
5.8491e-16
8.16389e-16
1.10488e-15
1.52205e-15
2.20512e-15
3.40447e-15
5.42951e-15
8.59656e-15
1.37707e-14
2.40625e-14
5.69954e-14
1.98545e-13
5.64473e-13
1.24959e-12
1.7529e-12
4.41216e-12
8.98301e-12
4.65379e-17
8.45175e-17
1.31399e-16
1.88165e-16
2.66247e-16
3.87832e-16
6.22772e-16
1.13032e-15
2.22007e-15
4.47838e-15
9.03192e-15
1.82564e-14
3.67032e-14
1.05053e-13
3.02659e-13
6.7081e-13
8.28262e-13
1.14282e-12
1.42959e-12
9.44342e-18
1.64728e-17
2.62094e-17
4.01678e-17
5.96418e-17
9.48785e-17
1.75866e-16
3.94021e-16
9.71496e-16
2.42759e-15
5.79167e-15
1.29318e-14
2.6085e-14
6.1693e-14
1.69642e-13
3.94959e-13
5.47852e-13
5.38464e-13
4.85569e-13
1.6659e-18
2.97676e-18
4.93132e-18
7.84227e-18
1.26274e-17
2.25875e-17
5.02392e-17
1.38104e-16
4.13241e-16
1.20038e-15
3.24503e-15
8.02729e-15
1.83772e-14
3.93846e-14
9.77325e-14
2.2555e-13
3.80276e-13
4.32942e-13
2.91559e-13
2.4598e-19
4.65224e-19
7.95325e-19
1.34906e-18
2.43155e-18
4.98873e-18
1.31864e-17
4.40498e-17
1.5508e-16
5.14402e-16
1.55663e-15
4.24988e-15
1.05192e-14
2.42763e-14
5.2695e-14
1.28991e-13
2.55555e-13
3.22098e-13
1.96197e-13
3.63933e-20
6.68966e-20
1.18315e-19
2.14101e-19
4.20479e-19
9.7666e-19
2.95623e-18
1.11811e-17
4.4236e-17
1.6402e-16
5.49635e-16
1.64072e-15
4.46642e-15
1.09843e-14
2.48178e-14
5.83979e-14
1.22191e-13
1.60702e-13
8.91341e-14
)
;

boundaryField
{
    leftWall
    {
        type            zeroGradient;
    }
    rightWall
    {
        type            zeroGradient;
    }
    lowerWall
    {
        type            zeroGradient;
    }
    atmosphere
    {
        type            inletOutlet;
        inletValue      uniform 0;
        value           nonuniform List<scalar> 
46
(
3.7586e-07
1.94468e-07
3.34296e-08
6.12119e-09
1.62138e-09
4.34387e-10
5.661e-11
5.09178e-12
0
0
0
0
0
0
0
0
0
0
0
2.72457e-16
2.4751e-16
1.03544e-16
2.87824e-17
1.26572e-18
9.06983e-20
2.01468e-20
2.59467e-20
0
0
0
0
0
0
0
0
0
0
0
0
0
0
0
0
1.22191e-13
1.60702e-13
8.91341e-14
)
;
    }
    defaultFaces
    {
        type            empty;
    }
}


// ************************************************************************* //
