/*--------------------------------*- C++ -*----------------------------------*\
| =========                 |                                                 |
| \\      /  F ield         | OpenFOAM: The Open Source CFD Toolbox           |
|  \\    /   O peration     | Version:  2312                                  |
|   \\  /    A nd           | Website:  www.openfoam.com                      |
|    \\/     M anipulation  |                                                 |
\*---------------------------------------------------------------------------*/
FoamFile
{
    version     2.0;
    format      ascii;
    arch        "LSB;label=32;scalar=64";
    class       volScalarField;
    location    "3.25";
    object      p_rgh;
}
// * * * * * * * * * * * * * * * * * * * * * * * * * * * * * * * * * * * * * //

dimensions      [1 -1 -2 0 0 0 0];

internalField   nonuniform List<scalar> 
2268
(
6488.51
6458.19
6403.1
6330.37
6246.45
6156.3
6062.47
5965.61
5866.13
5765.01
5664.37
5566.84
5475.23
5392.04
5319.95
5262.33
5222.43
5200.66
5194
5196.24
5204.05
5214.51
5223.39
6488.83
6459.04
6404.92
6332.01
6247.74
6157.32
6063.3
5966.24
5866.41
5764.7
5663.4
5565.15
5472.95
5389.16
5316.4
5258.18
5218.3
5197.28
5191.83
5194.87
5203.56
5215.12
5225.35
6493.73
6463.83
6409.31
6335.44
6250.3
6159.41
6065.13
5967.59
5867.02
5764.13
5661.47
5561.72
5468.32
5383.33
5309.17
5249.67
5209.89
5190.5
5187.63
5192.1
5202.23
5215.84
5228.23
6503.23
6472.17
6415.81
6340.41
6253.97
6162.36
6067.84
5969.63
5867.87
5763
5658.25
5556.3
5461.35
5374.77
5298.51
5236.67
5196.92
5180.12
5181.45
5188.05
5200.62
5218.21
5237.03
6517.09
6483.45
6423.56
6346.1
6258.27
6166.53
6071.82
5972.56
5869.36
5762.09
5654.26
5548.44
5452.04
5362.72
5275.87
5141.69
5053.1
5023.43
5032.47
5040.13
5093.13
5178.13
5215.06
6534.85
6496.73
6431.91
6352.26
6261.33
6169.21
6077.38
5977.42
5824.53
5514.61
5152.13
4677.82
4156.06
3610.11
3090.39
2753.4
2573.16
2536.77
2576.69
2580.18
2553.82
2604.08
2997.87
6512.66
6430.5
6260.61
6010.73
5636.06
5135.89
4621.21
3905.56
3144.23
2551.95
1978.15
1574.79
1370.69
1285.03
1269.55
1286.19
1293.32
1295.13
1320.16
1375.93
1439.9
1508.56
1482.03
4273.12
3882.87
3209.34
2594.9
2051.46
1727.13
1365.72
1184.67
1172.66
1187.01
1207.11
1228.23
1241.99
1251.5
1260.75
1276.85
1284.46
1285.82
1316.32
1367.82
1380.54
1511.2
1479.53
3805.64
3722.95
3623.5
3478.94
3302.76
3161.91
3062.19
2979.76
2908.36
2863.07
2846.17
2848.55
2830.45
2795.18
2731.26
2645.43
2559.37
2506.28
2480.35
3815.48
3735.21
3635.29
3486.44
3289.77
3156.1
3056.54
2971.3
2880.29
2820.56
2805.23
2813.84
2775.34
2736.96
2657.43
2529.73
2407.23
2360.23
2343.13
3819.15
3704.55
3552.28
3232.08
2924.31
2717.35
2547.65
2359.43
2188.15
2125.31
2133.19
2168.37
2206.74
2172.29
2065.72
1919.8
1755.6
1597.99
1485.97
3111.35
2813.87
2616.4
2236.18
1737.78
1409.5
1260.76
1217.97
1223.79
1185.92
1168.21
1205.54
1231.27
1236.4
1187.36
1139.23
1072.36
1030.44
1038.86
1596.97
1729.64
1385.26
1214.65
1223.23
1208.02
1176.76
1127.68
1074.83
1102.62
1133.1
1167.83
1138.46
1097.65
1075.12
1060.75
1062.17
1061.11
1060.08
1131.48
1100.9
1170.75
1215.24
1190
1186.3
1183.7
1154.51
1088.27
1099.21
1141.53
1201.17
1183.83
1140.91
1066.82
1039.81
1049.33
1068.21
1067.87
1161.89
1113.63
1189.58
1248.25
1301.71
1304.83
1290.31
1241.23
1172.4
1063.04
1122.62
1138.12
1129.13
1060.8
1026.32
1029.19
1038.52
1068.14
1070.23
1145.04
1090.08
1196.34
1269.13
1288.42
1288.14
1281.81
1316.86
1243.44
1114.8
1124.9
1095.48
1074.01
1049.55
1037.68
1026.18
1028.93
1011.02
947.145
1085.87
1047.12
1057.08
1078.24
1094.46
1111.27
1133.5
1155.26
1172.65
1189.36
1207.5
1225.34
1241.75
1257.02
1268.07
1270.1
1274.28
1286.17
1384.15
1392.13
1389.14
1325.08
1382.75
1043.97
1049.1
1058.87
1075.02
1093.82
1114.84
1137.07
1156.29
1173.32
1189.75
1206.59
1221.89
1237.29
1260.66
1284.97
1272.38
1267.51
1278.03
1281.53
1275.52
1265.57
1253.1
1251.62
1027.99
1036.29
1056.58
1074.63
1095.27
1116.59
1131.93
1161.58
1174.08
1179.35
1189.86
1185.98
1198.7
1252.89
1289.27
1269.71
1240.34
1220.53
1278.64
1278.94
1223.56
1199.57
1212.02
727.887
743.591
790.084
853.555
908.962
965.342
1016.91
1020.53
1014.65
1101.23
1137.49
1156.8
1156.97
1163.29
1202.42
1197.26
1198.51
1168.11
1082.4
990.228
958.896
973.34
973.052
523.559
545.216
557.262
593.347
674.738
731.663
755.353
751.277
766.419
823.559
849.775
845.733
821.526
826.439
846.816
891.416
908.658
842.264
782.355
759.283
786.414
777.501
780.033
230.248
286.746
400.556
527.712
634.594
722.938
707.516
695.799
711.245
718.814
725.191
736.273
751.625
761.865
765.288
754.651
747.587
744.903
741.763
743.373
744.337
763.707
781.335
11.0756
18.2841
55.9728
127.271
271.735
511.969
669.917
701.844
717.17
729.554
739.922
749.732
759.215
768.16
775.784
781.736
783.841
784.067
783.316
781.586
774.445
768.915
777.742
9.89655
9.41445
6.50798
5.59149
15.7553
47.894
192.955
406.778
581.01
688.899
741.853
757.049
767.287
775.868
782.148
786.369
789.457
790.483
789.952
788.66
786.763
787.232
796.986
3.92921
3.3714
2.42906
0.837991
0.495371
0.410961
0.649619
6.5213
47.4042
114.046
198.627
333.517
478.235
583.773
655.356
691.773
709.937
712.743
699.574
674.273
642.213
618.346
614.092
0.517621
0.496728
0.472115
0.452306
0.408269
0.348202
0.292356
0.375383
0.91819
1.97045
2.79502
2.13583
4.49597
15.1733
39.9229
62.9655
71.9749
69.5956
60.8865
43.0991
30.1002
37.4553
70.3031
0.440695
0.424556
0.399378
0.373244
0.334398
0.269844
0.19571
0.11002
0.0267286
-0.0036341
0.0390427
0.237592
0.100902
-0.0304155
-0.0248165
0.0331522
0.0675035
0.0786606
0.115546
0.337111
0.446227
2.06419
20.1627
0.372411
0.359553
0.337416
0.310605
0.273351
0.217655
0.147777
0.0881107
0.029715
-0.00951023
-0.0331306
-0.060235
-0.0494906
-0.0479114
-0.0507278
-0.0487421
-0.0222799
0.0256093
0.0747093
0.140118
0.187092
0.127446
0.0271224
0.314459
0.304277
0.285858
0.263452
0.245288
0.214975
0.158078
0.0912896
0.0374053
0.00634064
-0.021563
-0.0439005
-0.0525047
-0.0274032
-0.0201109
-0.0166213
-0.00825505
0.0193032
0.0473137
0.0709964
0.0713308
0.0454887
-0.101072
0.266066
0.258086
0.242977
0.252861
0.230811
0.196425
0.16029
0.0944822
0.0474161
0.0153964
-0.00836373
-0.0212407
-0.0266506
-0.0235328
-0.0215618
-0.0190622
-0.00385984
0.0723065
0.145118
0.159353
0.156681
0.142082
0.0261161
0.226734
0.219841
0.208325
0.211525
0.203541
0.177577
0.156901
0.127914
0.140435
0.119534
0.103726
0.12623
0.1231
0.133062
0.0962597
0.0773894
0.0763228
0.157858
0.15735
0.131721
0.0951195
0.0305803
0.0131551
0.194927
0.188712
0.178351
0.164562
0.154078
0.14146
0.15636
0.251044
0.230706
0.209577
0.125925
0.124615
0.1326
0.119798
0.166084
0.16085
0.144419
0.115862
0.035693
-0.0319049
-0.0732507
-0.113453
-0.104736
0.168998
0.163416
0.154629
0.142306
0.127786
0.110687
0.112393
0.135043
0.127884
0.085213
0.0242813
0.0154559
0.0202669
0.0592318
0.0613673
0.0239793
-0.0265079
-0.038436
-0.051172
-0.0683866
-0.0903495
-0.114587
-0.117547
0.146337
0.142055
0.134913
0.124709
0.112108
0.0977094
0.0821091
0.063978
0.0477075
0.032898
0.020469
0.00994029
0.00624353
0.00177624
-0.0136855
-0.0217163
-0.0297561
-0.0393949
-0.0514451
-0.0662547
-0.0834351
-0.101178
-0.113061
0.127433
0.123959
0.11816
0.109831
0.0995066
0.0875461
0.0742856
0.0602556
0.0465967
0.0339114
0.0225824
0.0124163
0.00337101
-0.00499255
-0.0128775
-0.0207898
-0.0291736
-0.0386332
-0.0496165
-0.0622473
-0.076315
-0.0909226
-0.104395
0.111437
0.108521
0.10376
0.0969018
0.0884208
0.0785651
0.067498
0.0559737
0.0444462
0.033428
0.0232258
0.0137685
0.00503602
-0.00322183
-0.0111906
-0.0191539
-0.0274682
-0.0364637
-0.046342
-0.0571158
-0.0685481
-0.0801127
-0.0909761
0.0978027
0.0953022
0.0913446
0.0856393
0.0785902
0.070392
0.0611982
0.0515436
0.0417292
0.0321495
0.0230347
0.0143827
0.00615936
-0.00176655
-0.00951726
-0.0172717
-0.0252264
-0.0335498
-0.042332
-0.0515197
-0.0608837
-0.0700097
-0.0783344
0.0860991
0.0839276
0.0806101
0.0758386
0.0699423
0.0630561
0.0553829
0.0471728
0.0388202
0.0304815
0.0223411
0.0144514
0.00680687
-0.000651841
-0.00799844
-0.0153377
-0.0227639
-0.0303455
-0.0380963
-0.0459323
-0.0536484
-0.0609156
-0.0673048
0.0760394
0.074066
0.0712627
0.0672374
0.0622802
0.0564859
0.0500103
0.0430393
0.0358061
0.0285186
0.0212622
0.0141075
0.00707768
0.000160343
-0.00668217
-0.013495
-0.0203033
-0.0271209
-0.0339221
-0.040612
-0.0470104
-0.052856
-0.0578286
0.0672299
0.0654379
0.0630373
0.059606
0.0553992
0.0504875
0.0449887
0.0390313
0.0327664
0.026349
0.0199012
0.013456
0.00705495
0.000715117
-0.00556989
-0.0117974
-0.0179555
-0.0240299
-0.0299732
-0.0356894
-0.0410277
-0.0457815
-0.0497142
0.0594835
0.057792
0.0557123
0.0527556
0.0491538
0.0449603
0.0402627
0.0351507
0.0297259
0.0240932
0.018363
0.0125963
0.00681965
0.00106392
-0.00464258
-0.010264
-0.0157777
-0.0211513
-0.0263286
-0.0312191
-0.0356975
-0.0396034
-0.0427625
0.0525003
0.0509322
0.0491006
0.0465255
0.0434181
0.0398202
0.0357965
0.0314069
0.026719
0.0218051
0.0167424
0.0115956
0.00641841
0.00124593
-0.00387188
-0.00889792
-0.0137959
-0.0185228
-0.023021
-0.0272097
-0.0309862
-0.0342256
-0.0367984
0.0462589
0.0446872
0.0430431
0.0407775
0.0380817
0.0349897
0.0315487
0.0277945
0.0237685
0.0195106
0.0150701
0.0104927
0.00590479
0.00131042
-0.00323877
-0.0076961
-0.012017
-0.0161553
-0.0200546
-0.0236453
-0.0268432
-0.0295506
-0.0316725
0.0405186
0.038939
0.0374131
0.0354005
0.0330574
0.0304083
0.0274858
0.0243042
0.0208781
0.0172117
0.0133529
0.00936496
0.00533048
0.00128449
-0.00272584
-0.00664878
-0.0104376
-0.0140445
-0.0174171
-0.0204959
-0.0232124
-0.0254904
-0.0272573
0.0351369
0.0335812
0.0321284
0.0303321
0.0283191
0.0261064
0.0235949
0.020944
0.0180629
0.0149571
0.0116606
0.00822433
0.00471922
0.00118938
-0.00231677
-0.00574442
-0.00904645
-0.0121764
-0.0150866
-0.0177253
-0.0200372
-0.0219624
-0.0234458
0.0300221
0.0285234
0.0271647
0.0256788
0.0248514
0.022602
0.0199325
0.0177314
0.0153699
0.0127947
0.0100235
0.00709934
0.00409299
0.00104263
-0.00199656
-0.00497022
-0.00783017
-0.010533
-0.0130358
-0.0152941
-0.0172629
-0.0188955
-0.0201463
0.0252657
0.0238808
0.0225648
0.0216429
0.0213416
0.019851
0.0174316
0.0147182
0.0128457
0.010761
0.00846859
0.00602162
0.00346984
0.000859186
-0.0017522
-0.00431144
-0.0067722
-0.00909291
-0.011236
-0.0131638
-0.0148392
-0.0162245
-0.0172844
0.0209013
0.0197428
0.0183936
0.0187119
0.0177515
0.0168299
0.0149021
0.01199
0.0105354
0.00889512
0.00702687
0.00500968
0.00286646
0.000653934
-0.00156971
-0.00375421
-0.00585508
-0.00783439
-0.00965896
-0.0112977
-0.0127194
-0.0138954
-0.0147952
0.0170093
0.0161238
0.0147502
0.0150043
0.0143913
0.0139602
0.0127366
0.00977385
0.00847321
0.00721041
0.00573757
0.00408561
0.00230213
0.00044419
-0.00143302
-0.00328134
-0.00505973
-0.00673446
-0.00827666
-0.00966059
-0.0108612
-0.0118574
-0.0126222
0.0136835
0.0129583
0.0116117
0.0107711
0.0108365
0.0117376
0.0144271
0.010804
0.00675059
0.00574466
0.00460152
0.0032674
0.00179727
0.000248791
-0.00132357
-0.00287414
-0.00436603
-0.00576959
-0.00706092
-0.00821908
-0.0092254
-0.0100675
-0.0107144
0.010554
0.0103618
0.00896952
0.00757728
0.00683163
0.00843365
0.0127135
0.0116384
0.00546301
0.00453845
0.00364824
0.00257571
0.00136957
8.66026e-05
-0.00122103
-0.00251165
-0.00375168
-0.00491555
-0.00598405
-0.00694079
-0.00777349
-0.00848646
-0.00902891
0.00822471
0.00806134
0.00690413
0.00572971
0.00495692
0.00625437
0.0115263
0.00732228
0.00430688
0.00359804
0.00289212
0.00202113
0.00103014
-2.8582e-05
-0.00110828
-0.00217313
-0.00319353
-0.00414743
-0.00501897
-0.00579517
-0.00646272
-0.00708867
-0.00752504
0.00639719
0.006112
0.0054049
0.00452424
0.00416205
0.00492984
0.00828485
0.00454397
0.0033421
0.00289313
0.00231478
0.00159366
0.000776554
-9.33828e-05
-0.00097567
-0.0018426
-0.00267054
-0.0034412
-0.00414162
-0.00476394
-0.00530815
-0.00579538
-0.00615798
0.00493484
0.00469732
0.00429288
0.00401273
0.00380357
0.00365767
0.00319126
0.00297235
0.002741
0.00235854
0.00186186
0.00125873
0.000589813
-0.000118523
-0.000823348
-0.00151205
-0.00216731
-0.00277542
-0.00332603
-0.0038141
-0.00424117
-0.00461996
-0.00491657
0.00362883
0.00350975
0.00359606
0.00349477
0.0032678
0.00282774
0.00257982
0.00243127
0.00221636
0.00188922
0.00146214
0.000969025
0.000445921
-0.00012811
-0.000661126
-0.00118258
-0.00167833
-0.00213784
-0.00255243
-0.00291746
-0.00324239
-0.00352215
-0.00374684
0.0030729
0.00266082
0.00290391
0.00278778
0.00243715
0.0022351
0.00208958
0.00192655
0.00170699
0.0014109
0.00105973
0.000679671
0.000287423
-0.000112101
-0.000493972
-0.000859225
-0.00120367
-0.00152209
-0.00180993
-0.00206564
-0.00228668
-0.00248045
-0.00263726
0.00341936
0.00307639
0.0019964
0.00171013
0.00164479
0.00157133
0.00146348
0.00130955
0.00110448
0.000880874
0.000631633
0.000377587
0.000129082
-0.000111218
-0.000335841
-0.000545593
-0.000740471
-0.000919927
-0.00108399
-0.00123793
-0.00136363
-0.00147583
-0.00156983
0.00138654
0.000816968
0.000283087
0.000484754
0.000650433
0.000694334
0.000660122
0.000576674
0.000469409
0.000326813
0.000187737
6.49498e-05
-3.7195e-05
-0.000120216
-0.000186294
-0.000239043
-0.000281896
-0.000318294
-0.000351736
-0.000390339
-0.000444456
-0.000479414
-0.000507776
1475.37
1446.27
1334.57
1128.99
1257.77
1244.01
1215.93
1208.75
1223.84
1229.07
1236.44
1245.75
1077.33
1120.32
1162.2
1179.12
792.313
823.723
818.026
831.749
797.676
799.561
802.465
802.131
788.23
791.963
800.068
813.528
810.996
812.384
807.944
822.283
626.747
647.153
658.331
660.17
131.242
163.154
258.524
269.002
40.9738
69.7039
72.5116
108.473
3.25562
4.20973
3.16991
0.777811
-0.343284
-0.442977
-0.478693
-0.498683
-0.0967328
-0.159971
-0.291173
-0.394783
-0.0296183
-0.0647292
-0.0884926
-0.182205
-0.0205314
0.00409613
-0.0632213
-0.16556
-0.082858
-0.0868882
-0.0964097
-0.124216
-0.120193
-0.130715
-0.124792
-0.0812203
-0.114557
-0.119923
-0.122227
-0.105205
-0.0980296
-0.101807
-0.103837
-0.106163
-0.0833465
-0.0859383
-0.087897
-0.0891778
-0.0709307
-0.0728352
-0.0742397
-0.0750939
-0.060529
-0.0619129
-0.062918
-0.0634925
-0.051779
-0.0528141
-0.0535439
-0.0539341
-0.0443793
-0.045175
-0.0457219
-0.0459976
-0.0380905
-0.0387192
-0.0391425
-0.0393463
-0.0327234
-0.0332309
-0.0335698
-0.0337287
-0.0281258
-0.0285441
-0.0288215
-0.028951
-0.0241711
-0.0245204
-0.024757
-0.0248679
-0.0207589
-0.0210568
-0.0212583
-0.0213622
-0.0178064
-0.0180626
-0.0182396
-0.0183373
-0.0152436
-0.0154662
-0.0156223
-0.0157151
-0.0130072
-0.0132005
-0.0133404
-0.0134285
-0.0110452
-0.011214
-0.0113381
-0.0114214
-0.0093099
-0.00945561
-0.00956669
-0.00964466
-0.00775953
-0.00788538
-0.00798312
-0.00805555
-0.00634558
-0.00645998
-0.00654915
-0.00661599
-0.00508977
-0.00517048
-0.00523957
-0.00529584
-0.00387642
-0.00394774
-0.00400703
-0.00405638
-0.0027319
-0.00278708
-0.00283474
-0.00287547
-0.00162932
-0.00166596
-0.00170102
-0.0017334
-0.000531179
-0.000548948
-0.000569731
-0.000595528
1116.14
1098.92
1143.84
1217.86
1239.91
1210.89
1189
1165.17
1246.84
1151.28
1096.12
1059.89
981.988
969.035
964.144
932.735
898.647
888.911
880.521
1179.61
1128.24
1136.52
1191.64
1198.16
1166.95
1136.81
1099.14
981.677
947.294
947.343
898.488
889.319
862.233
800.396
805.618
840.986
837.965
842.614
1251.26
1232.44
1225.01
1208.8
1133.77
1034.4
983.259
929.112
909.333
800.591
837.778
843.869
818.313
776.511
782.266
808.769
801.043
795.258
824.312
1181.55
1172.14
1086.06
980.728
904.685
919.547
916.552
836.694
907.58
910.2
912.013
841.126
722.211
753.925
821.52
892.833
827.681
782.939
797.402
836.722
807.53
785.402
811.753
907.875
911.454
873.773
812.649
729.86
821.259
790.34
721.613
751.934
753.418
837.399
971.713
926.089
773.709
766.04
799.329
797.188
795.343
790.401
783.057
776.408
771.019
775.525
773.017
722.898
719.52
762.128
753.591
731.553
842.091
789.167
856.053
785.109
746.428
829.312
822.093
802.354
793.768
785.618
777.559
770.271
763.495
757.984
753.898
749.056
748.652
734.526
708.599
638.457
514.664
511.273
726.073
722.836
891.084
906.744
823.576
801.598
789.069
780.247
774.956
752.623
720.605
683.428
636.553
545.751
423.545
283.226
122.032
118.7
281.312
330.712
481.754
684.272
772.087
869.651
781.362
695.648
567.511
402.551
295.637
215.519
164.94
110.466
70.0806
41.7969
20.0437
9.20208
1.14345
17.5033
49.6139
44.9452
275.377
356.564
373.034
260.32
131.057
56.4857
45.5706
23.2693
15.8194
3.88448
0.187241
0.202044
0.225623
0.223922
0.257961
0.384777
0.396815
0.325652
5.28601
140.343
80.17
36.4945
29.4703
18.4421
4.24854
-0.0420617
-0.0158818
0.016168
0.0706301
0.134841
0.37461
0.763044
0.836122
0.622556
0.475957
0.38671
0.325649
0.296412
4.40086
12.3807
9.05324
-0.335831
-0.236815
-0.143237
-0.0450825
0.021119
0.0759905
0.129074
0.230355
0.768475
1.13625
1.3535
1.42876
1.39663
0.542481
0.309695
0.301093
-0.532777
-0.506643
-0.438573
-0.335673
-0.231148
-0.127085
-0.0019924
0.0970472
0.188116
0.279893
0.309263
0.216265
0.253379
0.492351
0.726384
0.867365
0.94328
0.456991
0.285834
-0.420624
-0.437113
-0.386
-0.288528
-0.188487
-0.0948828
-0.030386
0.0253514
0.0546096
0.103642
0.153606
0.147144
0.140883
0.206602
0.515177
0.568768
0.600191
0.456958
0.275806
-0.294764
-0.316159
-0.276664
-0.224529
-0.162229
-0.0551225
-0.0174518
-0.0112496
0.0337925
0.0738934
0.0964694
0.122784
0.150386
0.208868
0.567991
0.493125
0.247935
0.317176
0.275251
-0.223025
-0.227105
-0.203896
-0.171332
-0.116241
-0.0060526
0.0197269
0.00419501
0.0361688
0.103639
0.213774
0.222847
0.1632
0.302737
0.619038
0.326287
0.234763
0.261839
0.284209
-0.141261
-0.128773
-0.0860915
-0.0511074
-0.0127309
0.0145006
0.00478419
0.00486896
0.0433442
0.104926
0.458733
0.558676
0.42846
0.539352
0.60182
0.27309
0.228528
0.416153
0.957643
-0.0483096
0.00419251
-0.00741584
0.00199554
0.00537212
-0.028551
-0.00824208
0.0151344
0.0242312
0.0441854
0.443613
0.567978
0.578961
0.583372
0.419344
0.295983
0.259965
1.15549
1.2463
-0.0791946
-0.0661015
-0.0605698
-0.062496
-0.0591063
-0.0336275
-0.0132414
0.00221478
0.0193066
0.0309267
0.0453988
0.230672
0.522668
0.409866
0.147219
0.463399
0.296147
1.24169
1.24974
-0.108373
-0.102616
-0.091141
-0.0759554
-0.0586386
-0.0398571
-0.0227793
-0.00860368
0.00516552
0.0169884
0.0285347
0.0381103
0.050494
0.0638617
0.127535
0.558003
0.908889
1.24939
1.08078
-0.0902025
-0.0864136
-0.0778165
-0.0660609
-0.0526582
-0.0381208
-0.0240884
-0.0109992
0.000867285
0.0116014
0.0214489
0.0308742
0.0404039
0.050707
0.0576077
0.766734
1.10275
0.716939
0.334573
-0.075566
-0.0725181
-0.0659694
-0.0568876
-0.0461041
-0.0343917
-0.0226388
-0.0116392
-0.0016306
0.0075074
0.0160271
0.0240855
0.0322802
0.039363
0.0421592
0.177804
0.698056
0.142178
0.202258
-0.0636885
-0.0612047
-0.056103
-0.0489568
-0.0403513
-0.0309084
-0.0212814
-0.0121292
-0.00363621
0.00423517
0.0115799
0.0185651
0.025531
0.0309282
0.0332629
0.0477812
0.056513
0.0977427
0.365239
-0.05399
-0.0519657
-0.0479314
-0.042264
-0.0354041
-0.0278251
-0.0200029
-0.0123495
-0.00508989
0.00169168
0.00799788
0.0139574
0.0196284
0.0241351
0.0269459
0.0392587
0.0342497
0.16261
0.73826
-0.045986
-0.0443362
-0.0411134
-0.036583
-0.0310664
-0.0249247
-0.0185105
-0.0121299
-0.00600035
-0.000243366
0.00510181
0.01001
0.0145147
0.01833
0.0214512
0.0243397
0.0200608
0.0967514
0.749047
-0.03931
-0.0379682
-0.0353777
-0.0317366
-0.0272781
-0.0222751
-0.016998
-0.0116957
-0.00655328
-0.00169624
0.0028009
0.00689145
0.0105136
0.0135819
0.0161843
0.0157836
0.0150264
0.0104062
0.715273
-0.0336894
-0.0326056
-0.0305166
-0.0275793
-0.0239653
-0.0198832
-0.0155344
-0.011135
-0.00683369
-0.00274939
0.00102512
0.0044145
0.00731312
0.0101822
0.0148516
0.0154833
0.0124699
0.00983045
0.147341
-0.0289183
-0.0280532
-0.0263696
-0.0239942
-0.0210607
-0.0177318
-0.0141275
-0.0104905
-0.00690351
-0.00347422
-0.000301756
0.00252548
0.0049757
0.0079327
0.0120834
0.0171569
0.0158739
0.00995792
0.0369516
-0.0248553
-0.0241567
-0.0228034
-0.0208806
-0.0184932
-0.0157642
-0.0128172
-0.00979685
-0.00680275
-0.00392831
-0.00126655
0.00107414
0.00334369
0.00500165
0.00703008
0.015134
0.018782
0.0157908
0.0364466
-0.0213696
-0.0208125
-0.0197247
-0.0181672
-0.0162227
-0.0139886
-0.0115686
-0.00906693
-0.00657123
-0.00416028
-0.00190476
0.000136052
0.00198728
0.00353132
0.00657072
0.0104947
0.0173697
0.0180092
0.0156369
-0.018363
-0.0179246
-0.0170523
-0.0157915
-0.0142079
-0.0123794
-0.010389
-0.00831886
-0.00624117
-0.0042203
-0.00231048
-0.000556202
0.00102358
0.00245276
0.0101567
0.0197104
0.0175624
0.0168933
0.0118518
-0.0157556
-0.0154155
-0.0147193
-0.013701
-0.0124126
-0.0109164
-0.00927913
-0.00756709
-0.00584001
-0.00414887
-0.00253565
-0.00103618
0.000317992
0.00152569
0.00896461
0.0191452
0.0202048
0.0169069
0.016794
-0.0134807
-0.0132219
-0.0126701
-0.0118507
-0.0108046
-0.00958163
-0.00823598
-0.0068219
-0.00538885
-0.00397755
-0.00261864
-0.00133809
-0.000173706
0.000848711
0.00306359
0.0161077
0.0194562
0.0203741
0.012627
-0.0114819
-0.0112899
-0.010857
-0.0102014
-0.00935512
-0.00835803
-0.00725433
-0.00608886
-0.00490296
-0.00373002
-0.0025917
-0.00149544
-0.00045602
0.000441147
0.00122611
0.00414145
0.0163278
0.0160706
0.00379623
-0.00971043
-0.00957328
-0.00923835
-0.00871828
-0.00803789
-0.00722897
-0.00632752
-0.00537078
-0.00439353
-0.00342422
-0.00248133
-0.00155357
-0.000575024
0.000321105
0.000849913
0.00143687
0.00286189
0.00320667
0.00239677
-0.00812368
-0.0080311
-0.00777722
-0.00737017
-0.00682896
-0.00617859
-0.00544822
-0.00466859
-0.00386885
-0.00307337
-0.00229884
-0.00154881
-0.000712957
0.000218411
0.000843639
0.000964169
0.00133957
0.0016815
0.00188175
-0.00668407
-0.0066275
-0.006441
-0.00612932
-0.00570659
-0.00519215
-0.00460916
-0.00398251
-0.00333609
-0.00269023
-0.00205933
-0.00145019
-0.000842442
-3.34758e-05
0.00075034
0.00107458
0.00104481
0.0013223
0.00182676
-0.00535854
-0.00533034
-0.00520057
-0.00497093
-0.0046514
-0.00425645
-0.00380377
-0.00331264
-0.0028018
-0.00228754
-0.0017819
-0.00129128
-0.000818282
-0.000281393
0.000507993
0.00103628
0.0011274
0.00114779
0.00160684
-0.00411503
-0.00411064
-0.00403016
-0.00387353
-0.00364724
-0.00336117
-0.00302772
-0.00266064
-0.00227345
-0.00187821
-0.00148415
-0.00109697
-0.000720538
-0.000350917
0.000157556
0.000916344
0.00115873
0.00124766
0.0013079
-0.00292827
-0.00294396
-0.0029089
-0.00282147
-0.00268422
-0.00250207
-0.00228206
-0.00203244
-0.00176156
-0.00147687
-0.00118428
-0.000888202
-0.00059261
-0.000304014
-4.0729e-06
0.000487011
0.00103059
0.00111736
0.000653994
-0.00177789
-0.00181118
-0.00182117
-0.00180207
-0.00175163
-0.00166988
-0.00155906
-0.0014224
-0.00126316
-0.00108401
-0.000886847
-0.000673945
-0.000450737
-0.000226339
-1.58072e-05
0.000226055
0.000649346
0.000852997
0.000362151
-0.000640225
-0.000689575
-0.000741104
-0.000786617
-0.000820234
-0.000837855
-0.000836902
-0.0008158
-0.000772964
-0.000706131
-0.000612435
-0.000490209
-0.000342488
-0.00018161
-3.21377e-05
7.19521e-05
8.51125e-05
5.74152e-05
2.02381e-06
)
;

boundaryField
{
    leftWall
    {
        type            fixedFluxPressure;
        gradient        uniform 0;
        value           nonuniform List<scalar> 
50
(
6488.51
6488.83
6493.73
6503.23
6517.09
6534.85
6512.66
4273.12
1085.87
1043.97
1027.99
727.887
523.559
230.248
11.0756
9.89655
3.92921
0.517621
0.440695
0.372411
0.314459
0.266066
0.226734
0.194927
0.168998
0.146337
0.127433
0.111437
0.0978027
0.0860991
0.0760394
0.0672299
0.0594835
0.0525003
0.0462589
0.0405186
0.0351369
0.0300221
0.0252657
0.0209013
0.0170093
0.0136835
0.010554
0.00822471
0.00639719
0.00493484
0.00362883
0.0030729
0.00341936
0.00138654
)
;
    }
    rightWall
    {
        type            fixedFluxPressure;
        gradient        uniform 0;
        value           nonuniform List<scalar> 
50
(
2480.35
2343.13
1485.97
1038.86
1060.08
1067.87
1070.23
947.145
880.521
842.614
824.312
797.402
766.04
746.428
722.836
481.754
44.9452
5.28601
0.296412
0.301093
0.285834
0.275806
0.275251
0.284209
0.957643
1.2463
1.24974
1.08078
0.334573
0.202258
0.365239
0.73826
0.749047
0.715273
0.147341
0.0369516
0.0364466
0.0156369
0.0118518
0.016794
0.012627
0.00379623
0.00239677
0.00188175
0.00182676
0.00160684
0.0013079
0.000653994
0.000362151
2.02381e-06
)
;
    }
    lowerWall
    {
        type            fixedFluxPressure;
        gradient        uniform 0;
        value           nonuniform List<scalar> 
62
(
6488.51
6458.19
6403.1
6330.37
6246.45
6156.3
6062.47
5965.61
5866.13
5765.01
5664.37
5566.84
5475.23
5392.04
5319.95
5262.33
5222.43
5200.66
5194
5196.24
5204.05
5214.51
5223.39
5223.39
5225.35
5228.23
5237.03
5215.06
2997.87
1482.03
1479.53
1475.37
1446.27
1334.57
1128.99
3805.64
3815.48
3819.15
3111.35
1596.97
1131.48
1161.89
1145.04
3805.64
3722.95
3623.5
3478.94
3302.76
3161.91
3062.19
2979.76
2908.36
2863.07
2846.17
2848.55
2830.45
2795.18
2731.26
2645.43
2559.37
2506.28
2480.35
)
;
    }
    atmosphere
    {
        type            totalPressure;
        rho             rho;
        psi             none;
        gamma           1;
        p0              uniform 0;
        value           nonuniform List<scalar> 
46
(
0
0
0
0
0
0
0
0
-5.0912e-06
-4.99258e-05
-0.000103155
-0.000142069
-0.000159664
-0.000158199
-0.000142216
-0.000116237
-8.41191e-05
-4.96958e-05
-1.86437e-05
-6.73759e-07
0
0
0
0
0
0
-2.97821e-07
-1.38647e-05
-6.59769e-05
-0.000145935
-0.000235837
-0.000322923
-0.000400081
-0.000463592
-0.00051122
-0.000540915
-0.000549614
-0.000532408
-0.000482858
-0.000396564
-0.000277301
-0.000144065
-3.5055e-05
0
0
0
)
;
    }
    defaultFaces
    {
        type            empty;
    }
}


// ************************************************************************* //
