/*--------------------------------*- C++ -*----------------------------------*\
| =========                 |                                                 |
| \\      /  F ield         | OpenFOAM: The Open Source CFD Toolbox           |
|  \\    /   O peration     | Version:  2312                                  |
|   \\  /    A nd           | Website:  www.openfoam.com                      |
|    \\/     M anipulation  |                                                 |
\*---------------------------------------------------------------------------*/
FoamFile
{
    version     2.0;
    format      ascii;
    arch        "LSB;label=32;scalar=64";
    class       surfaceScalarField;
    location    "3.25";
    object      phi;
}
// * * * * * * * * * * * * * * * * * * * * * * * * * * * * * * * * * * * * * //

dimensions      [0 3 -1 0 0 0 0];

oriented        oriented;

internalField   nonuniform List<scalar> 
4432
(
3.15811e-06
-3.15811e-06
5.0306e-06
-1.87247e-06
6.40851e-06
-1.37789e-06
7.31723e-06
-9.08713e-07
7.8035e-06
-4.86264e-07
7.9093e-06
-1.05797e-07
7.73547e-06
1.73824e-07
7.38116e-06
3.54315e-07
6.88833e-06
4.92832e-07
6.23436e-06
6.53978e-07
5.45369e-06
7.80678e-07
4.57741e-06
8.76289e-07
3.67312e-06
9.043e-07
2.80308e-06
8.70044e-07
2.05081e-06
7.52273e-07
1.46366e-06
5.87158e-07
1.02977e-06
4.33889e-07
7.0159e-07
3.2818e-07
4.82766e-07
2.18824e-07
3.07752e-07
1.75014e-07
1.13691e-07
1.94061e-07
-1.4967e-07
2.63361e-07
-1.49669e-07
2.20208e-06
-5.36021e-06
4.07735e-06
-3.74775e-06
5.57438e-06
-2.87494e-06
6.64327e-06
-1.97761e-06
7.27183e-06
-1.11483e-06
7.45903e-06
-2.93014e-07
7.34394e-06
2.88897e-07
7.0452e-06
6.53047e-07
6.5911e-06
9.46929e-07
5.97429e-06
1.27078e-06
5.21545e-06
1.53951e-06
4.3522e-06
1.73955e-06
3.44681e-06
1.80969e-06
2.58989e-06
1.72697e-06
1.84393e-06
1.49823e-06
1.27712e-06
1.15398e-06
8.69028e-07
8.41989e-07
5.71354e-07
6.25856e-07
3.93324e-07
3.96854e-07
2.72057e-07
2.96283e-07
1.22885e-07
3.43233e-07
-9.8623e-08
4.84869e-07
-2.48296e-07
1.72723e-06
-7.08745e-06
3.52794e-06
-5.54847e-06
5.05794e-06
-4.40493e-06
6.18788e-06
-3.10755e-06
6.87643e-06
-1.80338e-06
7.09842e-06
-5.1501e-07
6.9986e-06
3.88717e-07
6.74322e-06
9.08426e-07
6.33275e-06
1.3574e-06
5.74756e-06
1.85596e-06
5.00668e-06
2.28039e-06
4.13467e-06
2.61156e-06
3.23177e-06
2.71258e-06
2.37949e-06
2.57925e-06
1.64758e-06
2.23014e-06
1.12348e-06
1.67808e-06
7.70722e-07
1.19475e-06
5.39447e-07
8.57131e-07
4.622e-07
4.74101e-07
4.48324e-07
3.10159e-07
3.61189e-07
4.30368e-07
1.75206e-07
6.70851e-07
-7.30897e-08
1.49535e-06
-8.58283e-06
3.2569e-06
-7.31005e-06
4.8021e-06
-5.95014e-06
5.97103e-06
-4.27648e-06
6.66257e-06
-2.49494e-06
6.81698e-06
-6.69424e-07
6.70049e-06
5.05197e-07
6.50288e-06
1.10604e-06
6.14663e-06
1.71366e-06
5.55681e-06
2.44579e-06
4.78879e-06
3.04841e-06
3.86156e-06
3.53878e-06
2.90571e-06
3.66843e-06
2.05078e-06
3.43418e-06
1.35272e-06
2.92819e-06
8.87643e-07
2.14316e-06
6.22882e-07
1.45951e-06
5.0267e-07
9.77342e-07
5.63667e-07
4.13104e-07
6.79932e-07
1.93896e-07
5.85972e-07
5.24327e-07
2.99647e-07
9.57177e-07
2.26557e-07
1.5678e-06
-1.01506e-05
3.38578e-06
-9.12803e-06
4.92931e-06
-7.49366e-06
6.07967e-06
-5.42684e-06
6.71616e-06
-3.13143e-06
6.78122e-06
-7.34475e-07
6.58402e-06
7.02396e-07
6.40019e-06
1.28987e-06
6.07173e-06
2.04212e-06
5.47439e-06
3.04313e-06
4.65963e-06
3.86317e-06
3.52618e-06
4.67222e-06
2.34896e-06
4.84565e-06
1.30975e-06
4.4734e-06
5.41446e-07
3.69649e-06
6.55784e-08
2.61902e-06
-1.29463e-07
1.65455e-06
-6.95757e-08
9.17453e-07
1.98082e-07
1.45448e-07
5.82671e-07
-1.90694e-07
6.0336e-07
5.03641e-07
3.2645e-07
1.23409e-06
5.53009e-07
1.89835e-06
-1.2049e-05
3.89788e-06
-1.11276e-05
5.47821e-06
-9.07398e-06
6.62357e-06
-6.57219e-06
7.25324e-06
-3.7611e-06
7.16077e-06
-6.41998e-07
6.67294e-06
1.19022e-06
5.82113e-06
2.14169e-06
4.92813e-06
2.93513e-06
4.15445e-06
3.81682e-06
3.0963e-06
4.92133e-06
2.04455e-06
5.72398e-06
1.06588e-06
5.82431e-06
7.90725e-08
5.46018e-06
-8.20359e-07
4.5959e-06
-1.61957e-06
3.41822e-06
-2.44069e-06
2.47566e-06
-3.25231e-06
1.72907e-06
-3.81493e-06
7.08062e-07
-3.62463e-06
-3.80985e-07
-2.11928e-06
-1.00171e-06
4.74463e-07
-1.35966e-06
1.02748e-06
2.30591e-06
-1.43549e-05
4.51108e-06
-1.33327e-05
5.92184e-06
-1.04847e-05
6.53688e-06
-7.18721e-06
6.48355e-06
-3.70777e-06
6.57468e-06
-7.33117e-07
6.57722e-06
1.18769e-06
6.45534e-06
2.26358e-06
5.45229e-06
3.93817e-06
2.9291e-06
6.33999e-06
-1.65018e-06
9.50058e-06
-5.86106e-06
9.93481e-06
-9.08023e-06
9.04345e-06
-1.22135e-05
8.59339e-06
-1.57441e-05
8.12646e-06
-1.99397e-05
7.61382e-06
-2.38429e-05
6.37881e-06
-2.61625e-05
4.0487e-06
-2.52844e-05
-1.70061e-07
-2.09042e-05
-4.76115e-06
-1.50491e-05
-6.85685e-06
-7.10951e-06
-9.29925e-06
-6.08202e-06
2.42651e-06
-1.67814e-05
4.65403e-06
-1.55602e-05
6.32623e-06
-1.21569e-05
7.81855e-06
-8.67951e-06
7.90384e-06
-3.79303e-06
5.04972e-06
2.12102e-06
-2.20503e-06
8.44244e-06
-8.48925e-06
8.54778e-06
-1.12103e-05
6.65922e-06
-1.24862e-05
7.61578e-06
-1.32186e-05
1.0233e-05
-1.41303e-05
1.08465e-05
-1.54956e-05
1.04087e-05
-1.73271e-05
1.04249e-05
-1.96073e-05
1.04066e-05
-2.2915e-05
1.09215e-05
-2.57737e-05
9.2375e-06
-2.73429e-05
5.61791e-06
-2.5894e-05
-1.61898e-06
-2.28559e-05
-7.7993e-06
-1.94779e-05
-1.02349e-05
-1.54666e-05
-1.33105e-05
-2.15486e-05
2.49834e-06
-2.49834e-06
2.87071e-06
-3.72367e-07
7.8242e-07
2.08829e-06
-1.79908e-06
2.5815e-06
-4.63765e-06
2.83856e-06
-6.33348e-06
1.69583e-06
-6.20224e-06
-1.31234e-07
-4.76451e-06
-1.43773e-06
-2.87134e-06
-1.89316e-06
-1.05016e-06
-1.82119e-06
5.02306e-07
-1.55246e-06
2.0929e-06
-1.5906e-06
2.88852e-06
-7.95624e-07
3.01109e-06
-1.2257e-07
2.90163e-06
1.09463e-07
2.49384e-06
4.07788e-07
1.6652e-06
8.28631e-07
8.2017e-07
8.45031e-07
8.20168e-07
4.84055e-06
-7.33891e-06
5.71824e-06
-1.25007e-06
3.60366e-06
4.20289e-06
3.89356e-07
5.7958e-06
-2.27735e-06
5.50526e-06
-3.60738e-06
3.02586e-06
-3.22751e-06
-5.11102e-07
-1.80111e-06
-2.86413e-06
1.46886e-07
-3.84116e-06
2.10852e-06
-3.78282e-06
3.40147e-06
-2.84541e-06
4.14273e-06
-2.33186e-06
4.35716e-06
-1.01005e-06
3.44916e-06
7.85427e-07
1.9322e-06
1.62642e-06
9.27683e-07
1.41231e-06
3.93419e-07
1.36289e-06
1.60567e-07
1.07788e-06
9.80735e-07
4.67177e-06
-1.20107e-05
5.34737e-06
-1.92566e-06
3.88782e-06
5.66244e-06
6.82278e-07
9.00135e-06
-2.32115e-06
8.5087e-06
-4.11883e-06
4.82355e-06
-4.0975e-06
-5.32415e-07
-2.76801e-06
-4.19362e-06
-6.78596e-07
-5.93056e-06
1.3169e-06
-5.77831e-06
3.45422e-06
-4.98274e-06
4.99849e-06
-3.87613e-06
4.68906e-06
-7.00623e-07
3.14953e-06
2.32494e-06
9.97395e-07
3.77855e-06
-3.81061e-07
2.79075e-06
-6.20015e-07
1.60183e-06
-8.4343e-07
1.30128e-06
1.37289e-07
3.80248e-06
-1.58132e-05
3.82332e-06
-1.94652e-06
2.13094e-06
7.35481e-06
1.39244e-06
9.73984e-06
8.85318e-07
9.01582e-06
5.74272e-07
5.13459e-06
2.30548e-07
-1.88686e-07
-4.01293e-07
-3.56177e-06
-8.21174e-07
-5.51067e-06
-2.20794e-06
-4.39154e-06
-1.76825e-06
-5.42243e-06
3.36029e-06
-9.00467e-06
6.61541e-06
-3.95575e-06
7.31594e-06
1.6244e-06
7.49745e-06
3.59704e-06
6.01601e-06
4.27218e-06
1.70962e-06
5.90821e-06
-1.46021e-06
4.4711e-06
-1.32291e-06
-1.94997e-07
-1.56182e-05
-4.42088e-06
2.27936e-06
-1.20012e-05
1.49351e-05
-1.18488e-05
9.58745e-06
-6.17734e-06
3.34438e-06
-1.07945e-06
3.67394e-08
5.3605e-06
-6.62859e-06
9.74514e-06
-7.94638e-06
3.85487e-06
3.79622e-07
-5.79765e-06
5.261e-06
-6.0689e-06
-5.15118e-06
-2.20997e-06
-1.28636e-05
1.3328e-06
-7.49854e-06
4.2969e-06
-1.33972e-06
5.32496e-06
2.56896e-06
4.36834e-06
5.22878e-06
3.00453e-06
7.27201e-06
1.54109e-06
5.93452e-06
2.18152e-07
-9.78683e-06
-5.83145e-06
-2.16944e-05
1.41869e-05
-2.23743e-05
1.5615e-05
-1.90479e-05
6.26112e-06
-1.27217e-05
-2.98181e-06
-5.64059e-06
-7.04442e-06
5.02166e-09
-1.22742e-05
6.25759e-06
-1.41989e-05
9.5653e-06
-2.92808e-06
2.38527e-06
1.2441e-05
-1.02676e-06
-1.73915e-06
-1.55195e-06
-1.23384e-05
-2.42432e-06
-6.62617e-06
-3.02696e-06
-7.37086e-07
-3.3843e-06
2.9263e-06
-2.92833e-06
4.77281e-06
-1.23473e-06
5.57841e-06
1.91409e-07
4.50838e-06
4.09565e-07
-1.42088e-05
8.37733e-06
-2.25675e-05
2.25455e-05
-2.43485e-05
1.7396e-05
-2.08464e-05
2.75903e-06
-1.44233e-05
-9.40493e-06
-8.39352e-06
-1.30742e-05
-4.10497e-06
-1.65627e-05
6.38201e-07
-1.89421e-05
9.2922e-06
-1.15821e-05
9.27029e-06
1.24629e-05
4.92076e-06
2.61038e-06
-1.23967e-06
-6.17799e-06
-7.27721e-06
-5.8863e-07
-1.11073e-05
3.09298e-06
-1.15619e-05
3.38094e-06
-9.82177e-06
3.03266e-06
-7.76697e-06
3.52361e-06
-5.06074e-06
1.80214e-06
-4.65119e-06
-1.43845e-05
2.27619e-05
-2.02475e-05
2.84085e-05
-2.16316e-05
1.87801e-05
-1.77087e-05
-1.16383e-06
-1.18526e-05
-1.52611e-05
-7.34884e-06
-1.75779e-05
-4.85134e-06
-1.90602e-05
-3.2539e-06
-2.05396e-05
5.15227e-06
-1.99882e-05
1.20271e-05
5.58808e-06
8.26562e-06
6.37185e-06
-1.56933e-06
3.65696e-06
-1.11039e-05
8.94595e-06
-1.50677e-05
7.05682e-06
-1.50067e-05
3.31988e-06
-1.325e-05
1.27599e-06
-1.13311e-05
1.60463e-06
-8.2511e-06
-1.27784e-06
-1.29023e-05
3.96216e-06
-2.07435e-05
4.49138e-06
-1.60894e-05
-9.24196e-07
-6.74126e-06
-9.79028e-06
1.86621e-07
-1.71032e-05
3.51989e-06
-2.08512e-05
5.86905e-06
-2.17089e-05
9.30014e-06
-2.23585e-05
9.19737e-06
-2.42023e-05
8.50308e-06
-2.5572e-05
8.98547e-06
-2.50492e-05
9.71012e-06
-2.47611e-05
1.05584e-05
-2.64462e-05
1.20938e-05
-2.95567e-05
1.35354e-05
-3.39301e-05
1.47801e-05
-4.09082e-05
1.78996e-05
-4.68971e-05
1.52263e-05
-5.05221e-05
9.24292e-06
-5.23274e-05
1.86295e-07
-5.21734e-05
-7.95327e-06
-4.95872e-05
-1.28211e-05
-4.6033e-05
-1.68647e-05
-1.88913e-05
-4.86904e-05
-6.84533e-06
-1.38981e-05
-1.19787e-05
-1.09559e-05
-1.47775e-05
-3.94244e-06
-1.71781e-05
2.58728e-06
-1.72593e-05
3.60111e-06
-1.72823e-05
5.89201e-06
-1.65352e-05
8.55314e-06
-1.66275e-05
9.28964e-06
-1.81324e-05
1.0008e-05
-1.84225e-05
9.27558e-06
-1.72837e-05
8.5713e-06
-1.73322e-05
1.0607e-05
-1.94928e-05
1.42544e-05
-2.32786e-05
1.73211e-05
-2.84944e-05
1.99958e-05
-3.59644e-05
2.53695e-05
-4.49736e-05
2.42355e-05
-5.48221e-05
1.90914e-05
-6.38906e-05
9.25471e-06
-7.0838e-05
-1.00586e-06
-7.47259e-05
-8.93322e-06
-7.61441e-05
-1.54465e-05
-1.82847e-05
-7.67507e-05
-3.79451e-06
-1.01036e-05
-7.22505e-06
-7.52536e-06
-7.99329e-06
-3.1742e-06
-6.13951e-06
7.33513e-07
-6.84112e-06
4.30274e-06
-1.0016e-05
9.06695e-06
-1.30702e-05
1.16073e-05
-1.6478e-05
1.26976e-05
-1.92022e-05
1.27322e-05
-1.85663e-05
8.63963e-06
-1.74309e-05
7.43594e-06
-1.77426e-05
1.09187e-05
-2.03131e-05
1.68248e-05
-2.59744e-05
2.29824e-05
-3.32851e-05
2.73065e-05
-4.02365e-05
3.23209e-05
-4.8776e-05
3.27751e-05
-5.97441e-05
3.00595e-05
-7.17046e-05
2.12152e-05
-8.17805e-05
9.07008e-06
-8.68167e-05
-3.897e-06
-8.83996e-05
-1.38636e-05
-1.86058e-05
-8.80785e-05
-4.72857e-06
-5.37507e-06
-8.83801e-06
-3.41597e-06
-1.23043e-05
2.92024e-07
-1.65777e-05
5.00691e-06
-2.05198e-05
8.24495e-06
-2.40417e-05
1.25889e-05
-2.70455e-05
1.4611e-05
-2.99298e-05
1.55819e-05
-3.15215e-05
1.43239e-05
-3.19487e-05
9.06681e-06
-3.30438e-05
8.53105e-06
-3.44521e-05
1.23269e-05
-3.6827e-05
1.91997e-05
-4.03176e-05
2.64729e-05
-4.42386e-05
3.12275e-05
-4.69293e-05
3.50116e-05
-5.013e-05
3.59758e-05
-5.53583e-05
3.52878e-05
-6.34623e-05
2.93192e-05
-7.24147e-05
1.80225e-05
-7.89246e-05
2.61296e-06
-8.16758e-05
-1.11124e-05
-1.88045e-05
-8.14771e-05
-1.8404e-05
1.30289e-05
-3.22226e-05
1.04026e-05
-4.11826e-05
9.25216e-06
-4.67713e-05
1.05956e-05
-4.94466e-05
1.09204e-05
-5.01011e-05
1.32435e-05
-5.19496e-05
1.64594e-05
-5.39731e-05
1.76054e-05
-5.47972e-05
1.51478e-05
-5.72696e-05
1.15391e-05
-5.96415e-05
1.0903e-05
-6.09688e-05
1.36541e-05
-6.09392e-05
1.917e-05
-5.91653e-05
2.46991e-05
-5.67898e-05
2.88519e-05
-5.37603e-05
3.19821e-05
-5.1271e-05
3.34864e-05
-4.93856e-05
3.34023e-05
-4.88222e-05
2.87559e-05
-4.97578e-05
1.89581e-05
-5.31142e-05
5.96935e-06
-5.82798e-05
-5.94683e-06
-1.50817e-05
-6.20025e-05
-2.90733e-05
4.21019e-05
-4.5708e-05
2.70372e-05
-5.16214e-05
1.51656e-05
-5.55633e-05
1.45377e-05
-6.00067e-05
1.5364e-05
-6.3576e-05
1.68129e-05
-6.57292e-05
1.86125e-05
-6.73332e-05
1.92093e-05
-6.90716e-05
1.6886e-05
-7.21556e-05
1.46231e-05
-7.49561e-05
1.37033e-05
-7.60205e-05
1.47186e-05
-7.42145e-05
1.7364e-05
-7.00717e-05
2.05563e-05
-6.44982e-05
2.32783e-05
-5.79676e-05
2.54515e-05
-5.10337e-05
2.65525e-05
-4.36025e-05
2.59711e-05
-3.70341e-05
2.21875e-05
-3.28912e-05
1.48152e-05
-3.27703e-05
5.84848e-06
-3.63934e-05
-2.3238e-06
-1.05791e-05
-4.0896e-05
-3.03359e-05
7.24376e-05
-5.9427e-05
5.61283e-05
-7.71403e-05
3.28792e-05
-7.65085e-05
1.39061e-05
-7.40767e-05
1.29317e-05
-7.33136e-05
1.60497e-05
-7.28856e-05
1.81845e-05
-7.29681e-05
1.92918e-05
-7.45914e-05
1.85094e-05
-7.62683e-05
1.63e-05
-7.72115e-05
1.46467e-05
-7.66378e-05
1.4145e-05
-7.40444e-05
1.47707e-05
-6.94482e-05
1.59601e-05
-6.32099e-05
1.70401e-05
-5.55945e-05
1.78361e-05
-4.69602e-05
1.79181e-05
-3.77708e-05
1.67818e-05
-2.93188e-05
1.37355e-05
-2.33605e-05
8.85692e-06
-2.1025e-05
3.51296e-06
-2.19127e-05
-1.43614e-06
-6.63631e-06
-2.58554e-05
9.90226e-06
6.25358e-05
1.81368e-05
4.78942e-05
9.73954e-06
4.12772e-05
-3.41738e-05
5.782e-05
-7.71451e-05
5.59028e-05
-9.64105e-05
3.53133e-05
-9.30527e-05
1.48249e-05
-8.63388e-05
1.25773e-05
-8.25292e-05
1.46997e-05
-8.0404e-05
1.41749e-05
-7.81353e-05
1.2378e-05
-7.49993e-05
1.10092e-05
-7.04165e-05
1.01881e-05
-6.4585e-05
1.01286e-05
-5.75339e-05
9.98901e-06
-4.94519e-05
9.7542e-06
-4.06071e-05
9.07341e-06
-3.14379e-05
7.61255e-06
-2.28684e-05
5.166e-06
-1.61891e-05
2.17763e-06
-1.25529e-05
-1.23182e-07
-1.17963e-05
-2.19283e-06
-4.13283e-06
-1.42997e-05
1.5965e-05
4.65711e-05
2.24173e-05
4.14419e-05
2.25206e-05
4.11742e-05
2.05028e-05
5.98386e-05
5.52251e-06
7.08843e-05
-2.58861e-05
6.67228e-05
-6.69785e-05
5.59121e-05
-9.86225e-05
4.42194e-05
-0.000100478
1.65552e-05
-9.64104e-05
1.01063e-05
-9.1999e-05
7.96572e-06
-8.54865e-05
4.49663e-06
-7.63148e-05
1.01603e-06
-6.63015e-05
1.15238e-07
-5.65658e-05
2.53204e-07
-4.7067e-05
2.55429e-07
-3.79348e-05
-5.8776e-08
-2.93055e-05
-1.01676e-06
-2.12135e-05
-2.926e-06
-1.41182e-05
-4.91777e-06
-9.59766e-06
-4.64372e-06
-8.85061e-06
-2.93964e-06
1.09705e-08
-1.29944e-05
1.44076e-05
3.21634e-05
2.12709e-05
3.45784e-05
2.31959e-05
3.92487e-05
2.88222e-05
5.42119e-05
2.97141e-05
6.9992e-05
2.34854e-05
7.29532e-05
1.79043e-05
6.14967e-05
8.72638e-06
5.33973e-05
-1.6609e-05
4.1889e-05
-3.33273e-05
2.68248e-05
-4.23817e-05
1.70213e-05
-5.76763e-05
1.97908e-05
-7.58083e-05
1.91472e-05
-8.16452e-05
5.95164e-06
-7.31505e-05
-8.24188e-06
-5.85445e-05
-1.4351e-05
-4.46278e-05
-1.39757e-05
-3.30378e-05
-1.26069e-05
-2.23443e-05
-1.36198e-05
-1.66594e-05
-1.06029e-05
-3.19232e-05
1.06208e-05
-5.98573e-05
2.4994e-05
1.60208e-05
-7.58665e-05
1.10656e-05
2.10979e-05
1.96615e-05
2.59824e-05
2.58741e-05
3.30353e-05
3.50814e-05
4.50037e-05
4.69462e-05
5.81267e-05
5.61182e-05
6.37823e-05
6.23726e-05
5.52471e-05
6.43406e-05
5.14303e-05
6.03272e-05
4.59009e-05
5.11778e-05
3.59735e-05
3.99474e-05
2.82528e-05
3.70125e-05
2.27268e-05
3.91934e-05
1.69663e-05
3.59131e-05
9.2316e-06
2.74085e-05
2.624e-07
1.9372e-05
-6.31504e-06
1.16403e-05
-6.24449e-06
2.02052e-06
-2.9883e-06
-1.23694e-05
7.69028e-07
-3.20992e-05
9.12777e-06
-5.30558e-05
3.1576e-05
-7.80055e-05
4.99464e-05
3.95117e-05
-0.000101497
8.49075e-06
1.26077e-05
1.64213e-05
1.8052e-05
2.41757e-05
2.52808e-05
3.55326e-05
3.36462e-05
5.09376e-05
4.27211e-05
6.56003e-05
4.91189e-05
7.27108e-05
4.81361e-05
7.79985e-05
4.61421e-05
8.19533e-05
4.19462e-05
8.19955e-05
3.5931e-05
8.0265e-05
2.99832e-05
7.8906e-05
2.40864e-05
7.79079e-05
1.79644e-05
7.60719e-05
1.10675e-05
7.23462e-05
3.98813e-06
6.57803e-05
2.50865e-07
5.94422e-05
9.33052e-08
5.3915e-05
2.53834e-06
4.63244e-05
8.35877e-06
3.61977e-05
1.92536e-05
3.11131e-05
3.66627e-05
2.59105e-05
5.51483e-05
7.22869e-05
-6.86582e-06
5.9737e-06
6.63432e-06
1.20135e-05
1.20125e-05
1.85502e-05
1.87442e-05
2.82074e-05
2.39889e-05
4.10303e-05
2.9898e-05
5.47074e-05
3.54416e-05
6.54276e-05
3.74156e-05
7.37425e-05
3.78269e-05
7.99812e-05
3.5707e-05
8.38599e-05
3.20519e-05
8.5821e-05
2.80216e-05
8.62787e-05
2.36284e-05
8.58738e-05
1.83691e-05
8.45546e-05
1.23866e-05
8.1621e-05
6.92159e-06
7.83629e-05
3.5088e-06
7.64684e-05
1.98765e-06
7.55129e-05
3.49364e-06
7.45943e-05
9.27715e-06
7.42324e-05
1.96151e-05
7.75439e-05
3.33508e-05
8.57475e-05
4.69448e-05
5.62054e-05
0.000101829
3.57331e-06
3.06149e-06
7.3139e-06
8.27222e-06
1.17966e-05
1.42617e-05
1.80778e-05
1.77079e-05
2.62623e-05
2.17137e-05
3.56374e-05
2.60666e-05
4.48586e-05
2.81945e-05
5.37171e-05
2.89686e-05
6.21132e-05
2.7311e-05
6.83894e-05
2.57757e-05
7.22169e-05
2.4194e-05
7.43445e-05
2.15008e-05
7.5226e-05
1.74876e-05
7.51135e-05
1.24992e-05
7.45501e-05
7.48501e-06
7.45549e-05
3.50389e-06
7.55652e-05
9.77371e-07
7.81544e-05
9.04391e-07
8.21182e-05
5.31335e-06
8.70893e-05
1.46439e-05
9.43736e-05
2.60662e-05
0.000104657
3.66607e-05
4.23725e-05
0.000118491
1.33545e-06
1.72615e-06
2.94062e-06
6.66727e-06
5.10372e-06
1.20988e-05
7.37652e-06
1.54353e-05
1.04897e-05
1.86008e-05
1.47381e-05
2.18185e-05
2.01432e-05
2.27897e-05
2.78793e-05
2.12327e-05
3.6036e-05
1.91546e-05
4.31546e-05
1.86573e-05
4.73375e-05
2.00114e-05
5.00141e-05
1.88244e-05
5.13264e-05
1.61754e-05
5.19511e-05
1.18746e-05
5.25394e-05
6.89679e-06
5.33778e-05
2.66553e-06
5.54637e-05
-1.10851e-06
6.00882e-05
-3.72008e-06
6.75273e-05
-2.1256e-06
7.68123e-05
5.35878e-06
8.68975e-05
1.59808e-05
9.80247e-05
2.55332e-05
3.11695e-05
0.000109228
-4.44567e-07
2.17098e-06
-7.0489e-07
6.92778e-06
-4.40368e-07
1.18345e-05
-3.87501e-07
1.53826e-05
1.06518e-07
1.8107e-05
1.6328e-06
2.02925e-05
4.17856e-06
2.02442e-05
8.78282e-06
1.66287e-05
1.42304e-05
1.37074e-05
1.96899e-05
1.31981e-05
2.34435e-05
1.6258e-05
2.57925e-05
1.64756e-05
2.67008e-05
1.52672e-05
2.7411e-05
1.11645e-05
2.82425e-05
6.06544e-06
2.9337e-05
1.57103e-06
3.06158e-05
-2.38721e-06
3.36118e-05
-6.71604e-06
4.04161e-05
-8.92978e-06
5.17708e-05
-5.99602e-06
6.49197e-05
2.83179e-06
7.75571e-05
1.28957e-05
1.95602e-05
8.91664e-05
-1.40066e-06
3.57162e-06
-2.42014e-06
7.94733e-06
-2.91052e-06
1.23249e-05
-3.04094e-06
1.55132e-05
-2.65737e-06
1.77235e-05
-1.34732e-06
1.89826e-05
5.73402e-07
1.83237e-05
1.92034e-06
1.5282e-05
3.20921e-06
1.24187e-05
4.91663e-06
1.14908e-05
7.95263e-06
1.32222e-05
1.06324e-05
1.37961e-05
1.289e-05
1.30097e-05
1.5089e-05
8.9656e-06
1.68446e-05
4.30992e-06
1.81146e-05
3.01142e-07
1.89967e-05
-3.26931e-06
1.96741e-05
-7.39336e-06
2.14486e-05
-1.07043e-05
2.76459e-05
-1.21934e-05
3.9297e-05
-8.81939e-06
5.25327e-05
-3.40156e-07
7.76009e-06
6.43331e-05
-1.66556e-06
5.23728e-06
-2.75375e-06
9.03558e-06
-3.1345e-06
1.27057e-05
-2.94192e-06
1.53207e-05
-2.16205e-06
1.69437e-05
-7.42925e-07
1.75636e-05
7.47597e-07
1.68333e-05
1.4164e-06
1.46134e-05
1.46441e-06
1.23709e-05
1.81438e-06
1.1141e-05
3.65818e-06
1.13785e-05
6.32114e-06
1.11332e-05
9.37515e-06
9.95582e-06
1.15886e-05
6.75219e-06
1.28015e-05
3.09708e-06
1.35232e-05
-4.20474e-07
1.3996e-05
-3.7421e-06
1.38362e-05
-7.23348e-06
1.35195e-05
-1.03876e-05
1.39901e-05
-1.26641e-05
1.84639e-05
-1.32933e-05
2.83644e-05
-1.02406e-05
-3.31625e-06
3.94409e-05
-1.62007e-06
6.85722e-06
-2.5748e-06
9.99027e-06
-2.74158e-06
1.28725e-05
-2.22187e-06
1.4801e-05
-1.13721e-06
1.58591e-05
3.76816e-07
1.60496e-05
1.90345e-06
1.53068e-05
2.86768e-06
1.36492e-05
3.34421e-06
1.18944e-05
3.88965e-06
1.05957e-05
5.36116e-06
9.90711e-06
7.51327e-06
8.98115e-06
1.00174e-05
7.4518e-06
1.18901e-05
4.87952e-06
1.2974e-05
2.01322e-06
1.3349e-05
-7.95444e-07
1.32407e-05
-3.63378e-06
1.24478e-05
-6.44059e-06
1.11442e-05
-9.08403e-06
9.78254e-06
-1.13025e-05
9.2037e-06
-1.27146e-05
1.17937e-05
-1.28309e-05
-1.0266e-05
1.87438e-05
-1.55351e-06
8.41075e-06
-2.45381e-06
1.08905e-05
-2.54326e-06
1.2962e-05
-1.9075e-06
1.41652e-05
-7.00619e-07
1.46523e-05
8.6113e-07
1.44879e-05
2.50273e-06
1.36652e-05
3.82461e-06
1.23274e-05
4.86554e-06
1.08536e-05
5.90291e-06
9.55835e-06
7.34447e-06
8.4656e-06
9.09774e-06
7.22791e-06
1.09332e-05
5.61641e-06
1.22928e-05
3.51986e-06
1.3071e-05
1.23512e-06
1.33307e-05
-1.0552e-06
1.30402e-05
-3.34319e-06
1.21853e-05
-5.58573e-06
1.07772e-05
-7.67592e-06
8.9976e-06
-9.52312e-06
7.24256e-06
-1.09597e-05
6.17218e-06
-1.17605e-05
-1.15814e-05
7.48783e-06
-1.56733e-06
9.97793e-06
-2.52683e-06
1.185e-05
-2.70394e-06
1.3139e-05
-2.1666e-06
1.36279e-05
-1.06886e-06
1.35545e-05
4.04387e-07
1.30147e-05
2.00203e-06
1.20676e-05
3.51319e-06
1.08163e-05
4.87301e-06
9.49378e-06
6.20317e-06
8.22821e-06
7.64905e-06
7.01973e-06
9.14834e-06
5.72864e-06
1.05407e-05
4.22408e-06
1.15795e-05
2.48104e-06
1.21841e-05
6.3052e-07
1.23744e-05
-1.24546e-06
1.21437e-05
-3.11248e-06
1.14376e-05
-4.87969e-06
1.02964e-05
-6.53468e-06
8.76132e-06
-7.98823e-06
6.99031e-06
-9.18875e-06
5.2773e-06
-1.00477e-05
-1.03933e-05
4.08948e-06
-1.65052e-06
1.16284e-05
-2.75445e-06
1.29538e-05
-3.12186e-06
1.35064e-05
-2.80733e-06
1.33133e-05
-1.9406e-06
1.26878e-05
-6.83688e-07
1.17577e-05
7.73134e-07
1.06107e-05
2.25904e-06
9.33038e-06
3.71247e-06
8.04036e-06
5.1379e-06
6.80279e-06
6.55436e-06
5.60328e-06
7.91003e-06
4.37298e-06
9.09334e-06
3.04076e-06
9.983e-06
1.59138e-06
1.053e-05
8.35576e-08
1.07469e-05
-1.46242e-06
1.0591e-05
-2.95651e-06
1.00917e-05
-4.3804e-06
9.24335e-06
-5.6864e-06
8.07815e-06
-6.82318e-06
6.66786e-06
-7.77865e-06
5.12358e-06
-8.50342e-06
-8.89062e-06
3.62106e-06
-1.79e-06
1.34182e-05
-3.07207e-06
1.42358e-05
-3.66136e-06
1.40956e-05
-3.60272e-06
1.32546e-05
-3.00082e-06
1.20858e-05
-1.99128e-06
1.07482e-05
-7.2072e-07
9.34017e-06
6.72086e-07
7.93756e-06
2.10571e-06
6.60674e-06
3.53209e-06
5.3764e-06
4.90996e-06
4.22542e-06
6.17734e-06
3.10559e-06
7.2598e-06
1.95829e-06
8.08478e-06
7.66395e-07
8.63282e-06
-4.64493e-07
8.87026e-06
-1.69987e-06
8.81884e-06
-2.90511e-06
8.48542e-06
-4.04699e-06
7.87372e-06
-5.07476e-06
7.02326e-06
-5.97286e-06
5.97992e-06
-6.73541e-06
4.7888e-06
-7.31259e-06
-7.66187e-06
3.56027e-06
-1.94943e-06
1.53676e-05
-3.4293e-06
1.57156e-05
-4.23766e-06
1.49039e-05
-4.41963e-06
1.34365e-05
-4.05818e-06
1.17243e-05
-3.26244e-06
9.95239e-06
-2.15291e-06
8.23061e-06
-8.49981e-07
6.63462e-06
5.46367e-07
5.21037e-06
1.95323e-06
3.96953e-06
3.29509e-06
2.88354e-06
4.51197e-06
1.8887e-06
5.53213e-06
9.38117e-07
6.31922e-06
-2.07122e-08
6.84981e-06
-9.95102e-07
7.12464e-06
-1.97471e-06
7.13625e-06
-2.91674e-06
6.90608e-06
-3.81685e-06
6.4655e-06
-4.63422e-06
5.84631e-06
-5.35382e-06
5.06637e-06
-5.95566e-06
4.1897e-06
-6.43588e-06
-6.74584e-06
3.27383e-06
-2.11677e-06
1.74842e-05
-3.78424e-06
1.73829e-05
-4.80307e-06
1.59226e-05
-5.20051e-06
1.38339e-05
-5.04023e-06
1.1564e-05
-4.40982e-06
9.32194e-06
-3.41409e-06
7.23484e-06
-2.16888e-06
5.38938e-06
-7.87011e-07
3.82848e-06
6.20059e-07
2.56244e-06
1.9578e-06
1.54578e-06
3.14233e-06
7.04141e-07
4.1271e-06
-4.6672e-08
4.87477e-06
-7.68406e-07
5.37833e-06
-1.49868e-06
5.6358e-06
-2.2322e-06
5.68257e-06
-2.96352e-06
5.52254e-06
-3.65683e-06
5.18664e-06
-4.29837e-06
4.70406e-06
-4.87137e-06
4.11746e-06
-5.36911e-06
3.44818e-06
-5.76682e-06
-6.04645e-06
2.74906e-06
-2.27077e-06
1.97549e-05
-4.11178e-06
1.92238e-05
-5.31993e-06
1.71307e-05
-5.90402e-06
1.44179e-05
-5.90592e-06
1.15658e-05
-5.39631e-06
8.81228e-06
-4.47137e-06
6.30986e-06
-3.24587e-06
4.16384e-06
-1.85303e-06
2.43561e-06
-4.23515e-07
1.13289e-06
9.24838e-07
1.97395e-07
2.10481e-06
-4.75859e-07
3.06203e-06
-1.00392e-06
3.7763e-06
-1.4827e-06
4.2468e-06
-1.9692e-06
4.49523e-06
-2.48066e-06
4.53392e-06
-3.00223e-06
4.40093e-06
-3.52387e-06
4.12198e-06
-4.01947e-06
3.7285e-06
-4.478e-06
3.24136e-06
-4.88212e-06
2.69906e-06
-5.22445e-06
-5.48492e-06
2.1377e-06
-2.38756e-06
2.21423e-05
-4.36709e-06
2.12032e-05
-5.73253e-06
1.8496e-05
-6.46687e-06
1.51521e-05
-6.58848e-06
1.16874e-05
-6.15554e-06
8.37929e-06
-5.26208e-06
5.41635e-06
-4.03091e-06
2.93263e-06
-2.60982e-06
1.01447e-06
-1.15386e-06
-3.23102e-07
2.06859e-07
-1.16336e-06
1.38367e-06
-1.6527e-06
2.31834e-06
-1.93862e-06
3.00167e-06
-2.16606e-06
3.43864e-06
-2.4062e-06
3.64706e-06
-2.6891e-06
3.67663e-06
-3.03182e-06
3.54446e-06
-3.39171e-06
3.28507e-06
-3.76012e-06
2.92794e-06
-4.12098e-06
2.49859e-06
-4.45281e-06
2.02503e-06
-4.75109e-06
-4.99171e-06
1.53205e-06
-2.43107e-06
2.45732e-05
-4.49355e-06
2.32656e-05
-5.96974e-06
1.99721e-05
-6.80721e-06
1.59895e-05
-6.99832e-06
1.18784e-05
-6.59426e-06
7.97517e-06
-5.69708e-06
4.51912e-06
-4.43634e-06
1.67185e-06
-2.9947e-06
-4.27212e-07
-1.53818e-06
-1.77966e-06
-1.90596e-07
-2.51098e-06
9.62337e-07
-2.80567e-06
1.87143e-06
-2.84775e-06
2.5136e-06
-2.80826e-06
2.90525e-06
-2.79788e-06
3.07822e-06
-2.86209e-06
3.06458e-06
-3.0182e-06
2.91116e-06
-3.2383e-06
2.65226e-06
-3.50125e-06
2.30549e-06
-3.7743e-06
1.89836e-06
-4.04581e-06
1.44791e-06
-4.30055e-06
-4.52265e-06
9.79053e-07
-2.36812e-06
2.69412e-05
-4.43564e-06
2.5333e-05
-5.95834e-06
2.14947e-05
-6.84557e-06
1.68767e-05
-7.05188e-06
1.20847e-05
-6.63e-06
7.55324e-06
-5.69735e-06
3.58642e-06
-4.40767e-06
3.82123e-07
-2.97528e-06
-1.85965e-06
-1.56067e-06
-3.19431e-06
-2.73206e-07
-3.79848e-06
8.16622e-07
-3.89553e-06
1.66608e-06
-3.69724e-06
2.25454e-06
-3.39676e-06
2.58892e-06
-3.13229e-06
2.71411e-06
-2.9873e-06
2.66123e-06
-2.96534e-06
2.47437e-06
-3.05146e-06
2.18776e-06
-3.21466e-06
1.82935e-06
-3.41599e-06
1.41955e-06
-3.636e-06
9.73551e-07
-3.8547e-06
-4.05552e-06
5.06698e-07
-2.17694e-06
2.91181e-05
-4.14381e-06
2.72998e-05
-5.63654e-06
2.29874e-05
-6.51601e-06
1.77561e-05
-6.71012e-06
1.22787e-05
-6.2466e-06
7.08965e-06
-5.24109e-06
2.58086e-06
-3.9495e-06
-9.09525e-07
-2.56228e-06
-3.24692e-06
-1.24009e-06
-4.51655e-06
-6.78816e-08
-4.97073e-06
9.06851e-07
-4.87031e-06
1.66363e-06
-4.45406e-06
2.17917e-06
-3.91234e-06
2.45565e-06
-3.4088e-06
2.51519e-06
-3.04686e-06
2.40909e-06
-2.85926e-06
2.17487e-06
-2.81725e-06
1.85042e-06
-2.89024e-06
1.46777e-06
-3.0334e-06
1.0428e-06
-3.21114e-06
5.85828e-07
-3.39763e-06
-3.5752e-06
1.05667e-07
-1.84345e-06
3.09614e-05
-3.58933e-06
2.90456e-05
-4.96242e-06
2.43604e-05
-5.78112e-06
1.85747e-05
-5.94984e-06
1.24474e-05
-5.4516e-06
6.59136e-06
-4.40076e-06
1.52996e-06
-3.11584e-06
-2.19449e-06
-1.82177e-06
-4.54104e-06
-6.46805e-07
-5.69156e-06
3.47205e-07
-5.96479e-06
1.16415e-06
-5.68729e-06
1.78783e-06
-5.07778e-06
2.21101e-06
-4.33555e-06
2.41861e-06
-3.61643e-06
2.4271e-06
-3.05538e-06
2.26435e-06
-2.69652e-06
1.98406e-06
-2.53698e-06
1.61663e-06
-2.52283e-06
1.20041e-06
-2.61725e-06
7.48356e-07
-2.7591e-06
2.71321e-07
-2.92076e-06
-3.07983e-06
-2.23848e-07
-1.37525e-06
3.23366e-05
-2.77482e-06
3.04451e-05
-3.92414e-06
2.55096e-05
-4.64017e-06
1.92907e-05
-4.76498e-06
1.25721e-05
-4.26242e-06
6.08874e-06
-3.21602e-06
4.8351e-07
-2.00139e-06
-3.40918e-06
-8.65807e-07
-5.67667e-06
1.10995e-07
-6.66841e-06
8.93825e-07
-6.74766e-06
1.50337e-06
-6.29688e-06
1.97551e-06
-5.54995e-06
2.29022e-06
-4.6503e-06
2.43469e-06
-3.76093e-06
2.39284e-06
-3.01355e-06
2.18673e-06
-2.49043e-06
1.85941e-06
-2.20966e-06
1.45586e-06
-2.1193e-06
9.99872e-07
-2.16132e-06
5.19313e-07
-2.27862e-06
2.1301e-08
-2.42263e-06
-2.56446e-06
-4.93907e-07
-8.02954e-07
3.31395e-05
-1.73358e-06
3.13757e-05
-2.54472e-06
2.63207e-05
-3.08583e-06
1.98317e-05
-3.15839e-06
1.26446e-05
-2.6845e-06
5.6148e-06
-1.7443e-06
-4.56749e-07
-7.08719e-07
-4.44481e-06
1.78166e-07
-6.56361e-06
8.9783e-07
-7.38812e-06
1.43122e-06
-7.28109e-06
1.82465e-06
-6.69035e-06
2.1125e-06
-5.83784e-06
2.31337e-06
-4.85121e-06
2.40185e-06
-3.84943e-06
2.33865e-06
-2.95037e-06
2.12143e-06
-2.27322e-06
1.76962e-06
-1.85785e-06
1.33362e-06
-1.68331e-06
8.48132e-07
-1.67588e-06
3.42309e-07
-1.77276e-06
-1.74858e-07
-1.90557e-06
-2.03735e-06
-7.0172e-07
-2.0012e-07
3.33396e-05
-5.46248e-07
3.17217e-05
-9.14073e-07
2.66885e-05
-1.11691e-06
2.00345e-05
-1.03909e-06
1.25668e-05
-6.29376e-07
5.20502e-06
2.56028e-08
-1.11178e-06
6.57572e-07
-5.07684e-06
1.17145e-06
-7.07754e-06
1.58634e-06
-7.80306e-06
1.86049e-06
-7.55529e-06
2.02824e-06
-6.85814e-06
2.14093e-06
-5.95056e-06
2.22262e-06
-4.93293e-06
2.25493e-06
-3.88177e-06
2.19869e-06
-2.89414e-06
2.00307e-06
-2.0776e-06
1.66875e-06
-1.52352e-06
1.22684e-06
-1.2414e-06
7.29069e-07
-1.17813e-06
2.03998e-07
-1.24773e-06
-3.24456e-07
-1.37696e-06
-1.50547e-06
-8.56187e-07
3.92002e-07
3.29475e-05
6.59961e-07
3.14537e-05
8.56166e-07
2.64922e-05
1.16188e-06
1.97287e-05
1.53656e-06
1.2192e-05
1.81654e-06
4.92498e-06
1.91999e-06
-1.21529e-06
1.99129e-06
-5.14819e-06
2.07131e-06
-7.15761e-06
2.12648e-06
-7.85827e-06
2.11448e-06
-7.54333e-06
2.05433e-06
-6.79803e-06
1.99344e-06
-5.88969e-06
1.9619e-06
-4.90141e-06
1.95444e-06
-3.87432e-06
1.92007e-06
-2.85978e-06
1.78867e-06
-1.94619e-06
1.51478e-06
-1.24962e-06
1.11301e-06
-8.39621e-07
6.24516e-07
-6.89646e-07
9.82403e-08
-7.21404e-07
-4.31571e-07
-8.47247e-07
-9.76498e-07
-9.60314e-07
8.8599e-07
3.20615e-05
1.74023e-06
3.05994e-05
2.54787e-06
2.56845e-05
3.38542e-06
1.88911e-05
4.05496e-06
1.15224e-05
4.23961e-06
4.74027e-06
3.89173e-06
-8.67459e-07
3.36232e-06
-4.61882e-06
2.91834e-06
-6.71368e-06
2.52496e-06
-7.46493e-06
2.18047e-06
-7.19888e-06
1.88219e-06
-6.49979e-06
1.65485e-06
-5.66239e-06
1.51848e-06
-4.76505e-06
1.47444e-06
-3.8303e-06
1.47482e-06
-2.86016e-06
1.43629e-06
-1.90765e-06
1.27284e-06
-1.08615e-06
9.53239e-07
-5.19997e-07
5.14561e-07
-2.50965e-07
1.0539e-08
-2.17402e-07
-5.12065e-07
-3.24435e-07
-4.64385e-07
-1.02401e-06
1.26121e-06
3.08002e-05
2.60648e-06
2.92541e-05
3.92822e-06
2.43627e-05
5.175e-06
1.76443e-05
6.0166e-06
1.06808e-05
6.13826e-06
4.61857e-06
5.4909e-06
-2.20144e-07
4.54483e-06
-3.6728e-06
3.60106e-06
-5.76994e-06
2.75165e-06
-6.61556e-06
2.06055e-06
-6.50781e-06
1.53006e-06
-5.96932e-06
1.15562e-06
-5.28796e-06
9.33036e-07
-4.54248e-06
8.51788e-07
-3.74905e-06
8.7804e-07
-2.88641e-06
9.36531e-07
-1.96613e-06
9.15728e-07
-1.06532e-06
7.32728e-07
-3.36971e-07
3.83001e-07
9.87738e-08
-6.98108e-08
2.35523e-07
-5.65321e-07
1.71005e-07
2.48772e-08
-1.05431e-06
1.52289e-06
2.92773e-05
3.22568e-06
2.75513e-05
4.91607e-06
2.26723e-05
6.36207e-06