/*--------------------------------*- C++ -*----------------------------------*\
| =========                 |                                                 |
| \\      /  F ield         | OpenFOAM: The Open Source CFD Toolbox           |
|  \\    /   O peration     | Version:  2312                                  |
|   \\  /    A nd           | Website:  www.openfoam.com                      |
|    \\/     M anipulation  |                                                 |
\*---------------------------------------------------------------------------*/
FoamFile
{
    version     2.0;
    format      ascii;
    arch        "LSB;label=32;scalar=64";
    class       volScalarField;
    location    "4.8";
    object      alpha.galistan;
}
// * * * * * * * * * * * * * * * * * * * * * * * * * * * * * * * * * * * * * //

dimensions      [0 0 0 0 0 0 0];

internalField   nonuniform List<scalar> 
2268
(
1
1
1
1
1
1
1
1
1
1
1
1
1
1
1
1
1
1
1
1
0.999984
0.999955
0.999954
1
1
1
1
1
1
1
1
1
1
1
1
1
1
1
1
1
1
1
1
0.999997
0.999967
0.99996
1
1
1
1
1
1
1
1
1
1
1
1
1
1
1
1
1
1
1
1
1
0.999998
0.999998
1
0.999999
0.999995
0.999995
1
1
1
1
1
0.999999
1
1
1
1
1
1
1
1
1
1
1
1
1
0.930215
0.934735
0.943238
0.953848
0.966527
0.98006
0.99158
0.999886
0.999945
0.99981
0.999682
0.999828
0.999901
0.999883
0.999973
0.999998
0.999998
0.999999
1
1
1
1
1
0.208138
0.218979
0.241561
0.272688
0.308301
0.345244
0.385501
0.433668
0.496585
0.567019
0.648209
0.737867
0.821565
0.905306
0.970617
0.999393
0.999896
0.999862
0.99952
0.998627
0.99929
1
1
2.60053e-20
5.89245e-28
3.35118e-27
1.1296e-21
3.74324e-20
-4.58172e-20
1.6796e-19
0.000377631
0.0027527
0.00808798
0.0166228
0.0410167
0.0993324
0.183209
0.300938
0.454115
0.609994
0.742392
0.860911
0.909568
0.931094
0.970621
0.996558
1.07219e-09
4.57204e-09
7.83247e-09
1.13713e-21
4.12579e-06
1.37942e-05
9.99494e-06
1.03471e-05
1.14163e-05
4.31415e-05
3.39307e-05
3.37349e-05
0.000101256
0.000109983
4.35831e-08
0.0012696
0.0376714
0.108025
0.205512
0.359547
0.504325
0.59
0.635069
0.957799
0.962768
0.962768
0.961016
0.957641
0.957362
0.958394
0.960554
0.961201
0.961205
0.961262
0.964572
0.964932
0.964931
0.964928
0.964927
0.964924
0.963456
0.963358
0.9407
0.950519
0.959083
0.962363
0.96299
0.96431
0.964429
0.965988
0.967497
0.967487
0.967508
0.959389
0.939062
0.913907
0.904048
0.885846
0.869975
0.861032
0.843917
0.684035
0.687362
0.716132
0.757343
0.783003
0.786229
0.768909
0.754023
0.740359
0.70398
0.632798
0.579682
0.536659
0.480559
0.436727
0.343234
0.252705
0.213212
0.228487
0.111057
0.101739
0.111895
0.117266
0.137919
0.192161
0.252417
0.305441
0.333603
0.33624
0.320597
0.262094
0.201918
0.158383
0.0652628
0.00268019
0.000361162
0.000203578
0.000203357
5.38294e-05
5.3608e-05
5.38308e-05
5.38209e-05
5.40747e-05
5.42521e-05
0.00520314
0.00514888
0.00514723
0.00678342
0.00910639
0.00451937
5.03106e-06
3.64092e-06
3.45847e-06
0.00038127
0.00440711
0.00439988
0.00104712
5.38213e-05
6.22594e-05
5.50888e-05
0.000260039
0.000283551
0.000738146
0.000186563
0.00529195
0.00990956
0.0094674
0.0118503
0.00772427
0.000827141
3.44624e-06
3.50733e-06
7.20561e-05
0.00742414
0.0122005
0.00180595
8.17068e-05
0.00033416
0.000249318
0.000705934
0.000708418
0.000398093
0.000102095
0.00167644
0.0060621
0.019494
0.0223829
0.0133249
0.00330179
3.62858e-06
5.38108e-06
4.13321e-06
0.0099311
0.0121911
0.00480053
8.17075e-05
0.0003478
0.000322844
0.000637889
0.00162548
0.000927422
0.000102459
0.000102454
0.00366571
0.0221081
0.0223846
0.0223821
0.00614289
3.44531e-06
3.57471e-06
3.55617e-06
0.0042996
0.0121905
0.0074418
5.17509e-05
4.5986e-09
4.62401e-09
1.08675e-05
5.76181e-05
5.79904e-05
8.39818e-05
7.23081e-05
5.38252e-05
3.61111e-05
3.74737e-05
4.60536e-05
4.67551e-05
1.44848e-05
5.08426e-08
-1.14983e-21
3.05827e-21
5.55565e-09
1.61587e-09
1.46808e-09
1.91343e-09
0.00181174
0.00611459
0.000512328
0.000142374
0.000301898
0.00101828
0.00131466
0.00117439
0.00055698
6.78338e-05
1.57234e-05
3.93832e-06
4.1299e-06
6.35392e-06
2.82414e-06
3.00192e-07
4.09937e-09
9.43126e-28
-3.38442e-23
0.000227037
0.000209149
0.000186116
0.000477978
2.04695e-05
-2.09241e-07
0.000597993
0.000564221
0.00188657
0.00241353
0.00241377
0.00231987
0.000297009
6.78283e-05
0.000349382
0.000603028
0.000558814
0.000324696
0.000192479
0.000353776
0.000844304
0.00205057
0.00414609
0.00515342
0.00395471
0.00370289
0.0038011
0.00283972
0.00192753
0.000597205
0.000795165
0.0024154
0.00241406
0.00187752
0.000437494
0.000187438
0.000993119
0.00186519
0.00186508
0.00103237
0.00201711
0.00468038
0.00484121
0.00484221
0.00523899
0.00558633
0.00558649
0.00558647
0.00558599
0.00292457
0.000521907
0.000520111
0.000413797
0.00131018
0.000889177
0.000485367
3.72081e-05
0.000498157
0.000983394
0.000984745
0.000605416
0.000480175
0.000396568
0.000908735
0.00122828
0.00101725
0.000903842
0.00125897
0.00191312
0.00500692
0.00552741
0.00212188
0.000627391
0.000628776
0.000614614
0.000256565
0.000557877
3.71762e-05
3.7226e-05
3.71984e-05
0.000488453
0.000921302
0.000247526
6.94705e-05
1.74822e-05
5.11998e-05
5.23931e-05
4.63601e-05
6.56482e-05
7.51724e-05
7.68123e-05
1.15764e-05
1.1568e-05
0.00073429
0.00316189
0.00384076
0.00120952
0.000383469
8.36865e-05
3.71666e-05
3.71652e-05
3.71763e-05
3.71874e-05
8.44195e-05
0.000178708
0.000145742
2.68973e-05
4.11342e-07
4.88358e-06
8.98894e-06
4.58811e-05
0.000123594
0.000111896
1.71814e-05
1.15751e-05
1.15864e-05
0.00162836
0.00384324
0.00384321
0.00384313
0.0012318
3.73147e-05
3.71871e-05
3.71917e-05
3.72186e-05
7.12328e-05
8.82806e-05
1.43955e-05
1.25871e-06
1.73901e-07
-1.15648e-19
-9.57725e-16
4.54758e-06
9.08378e-05
0.000130111
0.000129846
3.94354e-05
1.15828e-05
3.48223e-05
0.000636082
0.00196814
0.00272183
0.00179401
0.000930921
0.000178258
5.29059e-05
3.71992e-05
8.56899e-05
0.000254719
0.000238757
1.47223e-05
3.32331e-07
1.9393e-08
8.70024e-07
1.63393e-11
2.0595e-07
3.65441e-05
8.55364e-05
2.65379e-05
9.2836e-06
3.48926e-05
4.87502e-05
2.99e-05
1.04018e-09
6.31227e-10
3.45839e-10
3.66421e-10
0.000526737
0.000307846
4.41215e-05
0.000125358
0.000872353
0.000966518
0.000693899
0.000378265
2.49706e-05
9.32253e-07
2.24395e-06
2.48003e-06
3.7605e-06
4.81683e-06
2.288e-06
4.78084e-06
3.27936e-06
2.19051e-06
6.69287e-09
6.85052e-09
3.31472e-09
1.74365e-09
2.13452e-08
0.000566715
0.000566707
0.000484801
0.000466047
0.000934801
0.000969874
0.000969872
0.000969873
0.000969864
0.000781825
7.2883e-05
1.03701e-06
9.43339e-07
1.14053e-06
8.40855e-07
3.2278e-07
3.97292e-08
3.90416e-08
4.26628e-08
2.13899e-08
4.16986e-09
2.97551e-07
1.01728e-06
0.000355469
0.000378219
0.000529406
0.000637696
0.000668403
0.000797865
0.000767508
0.000411388
0.000111677
0.000190484
0.000123949
1.79439e-06
4.62565e-07
4.69157e-07
5.01819e-07
8.03877e-08
1.1468e-07
4.36685e-07
4.83109e-07
6.79381e-08
1.68625e-07
1.33548e-06
1.51574e-06
4.39656e-10
4.57626e-10
2.02406e-05
0.000150132
0.000226365
9.83257e-05
2.49897e-08
2.48896e-08
2.64709e-08
1.69221e-05
3.09712e-05
2.33506e-06
8.31185e-07
7.07636e-07
5.06225e-08
1.82695e-08
5.24044e-07
8.12558e-07
5.64391e-07
2.63645e-07
1.33337e-06
1.51656e-06
1.51699e-06
1.51064e-09
1.3836e-08
3.37619e-15
-4.54132e-10
4.3777e-07
1.21062e-06
1.70471e-07
3.2093e-08
1.14438e-07
3.37256e-07
1.0224e-06
1.20616e-06
6.82795e-07
1.9211e-07
2.43587e-08
1.572e-08
3.03108e-07
3.15317e-07
8.65152e-09
4.9181e-07
1.51451e-06
1.5151e-06
5.35804e-07
7.15582e-09
8.21069e-08
2.69367e-07
2.71394e-07
5.09086e-07
1.34157e-06
3.77739e-08
3.25045e-08
3.2888e-07
6.0731e-07
6.02938e-07
1.13688e-07
4.5713e-08
1.95014e-08
2.59698e-08
2.44043e-08
1.0263e-08
1.1985e-09
1.19305e-09
7.15436e-08
8.28959e-07
6.27921e-07
3.97545e-08
1.121e-08
8.19454e-08
4.48559e-07
4.49443e-07
3.12724e-07
3.20455e-07
2.13563e-07
3.27933e-08
8.93917e-08
1.87532e-07
2.79351e-08
1.5357e-08
5.17991e-09
8.46389e-09
1.62101e-08
9.84784e-09
4.01806e-09
5.29964e-09
5.27635e-09
1.0384e-08
5.49415e-08
1.8953e-07
6.97483e-08
1.15796e-09
3.80081e-08
1.53835e-07
1.53119e-07
5.37253e-08
6.92587e-08
1.71715e-07
5.00894e-08
8.75618e-09
8.33524e-09
1.28705e-08
4.58588e-09
5.14179e-09
6.69652e-09
6.27399e-09
2.93973e-09
5.09665e-09
1.05823e-08
1.00059e-08
3.86893e-10
3.42477e-08
2.02564e-07
1.26071e-07
1.16001e-09
7.20531e-09
2.98504e-08
4.19204e-08
3.78331e-08
2.60412e-08
3.10166e-08
4.43982e-08
1.49276e-08
6.80803e-09
4.47037e-09
3.19907e-09
3.75915e-09
3.34918e-09
2.24862e-09
1.50578e-09
1.85548e-09
1.94501e-09
1.20193e-09
3.87908e-10
1.35584e-08
2.28968e-07
2.84891e-07
1.18715e-09
2.81262e-09
8.3686e-09
1.33467e-08
1.57404e-08
1.49881e-08
1.36936e-08
1.42003e-08
7.15364e-09
2.97374e-09
2.4515e-09
2.5216e-09
2.13663e-09
1.48959e-09
9.81274e-10
7.72544e-10
6.86524e-10
6.57384e-10
5.73803e-10
3.92421e-10
6.17862e-10
1.5945e-07
2.90678e-07
1.00904e-09
1.54259e-09
3.17543e-09
4.70393e-09
5.3768e-09
6.07415e-09
5.57973e-09
4.42883e-09
2.82022e-09
2.07293e-09
1.91692e-09
1.63209e-09
1.16838e-09
7.72771e-10
5.31969e-10
4.18857e-10
3.75961e-10
3.7931e-10
4.24687e-10
5.3959e-10
4.21715e-10
3.00078e-09
1.54347e-07
8.88313e-10
1.03915e-09
1.60105e-09
1.97562e-09
2.22695e-09
2.47302e-09
2.25703e-09
1.87365e-09
1.49341e-09
1.31367e-09
1.10478e-09
8.22589e-10
5.54445e-10
3.6964e-10
2.62289e-10
2.12479e-10
2.0364e-10
2.20956e-10
2.78543e-10
4.01776e-10
4.50961e-10
2.20542e-10
2.21729e-08
7.82286e-10
7.29017e-10
9.69663e-10
1.08434e-09
1.19364e-09
1.20617e-09
1.07137e-09
9.06002e-10
7.68281e-10
6.47733e-10
4.96196e-10
3.43545e-10
2.26443e-10
1.51614e-10
1.08764e-10
8.6131e-11
8.23747e-11
8.98785e-11
1.14742e-10
1.68313e-10
2.46391e-10
2.21093e-10
2.16386e-09
7.17624e-10
5.1214e-10
6.14588e-10
6.45504e-10
6.62557e-10
6.24559e-10
5.27338e-10
4.25976e-10
3.36434e-10
2.56526e-10
1.81167e-10
1.19698e-10
7.73703e-11
5.12953e-11
3.6325e-11
2.79693e-11
2.69488e-11
2.94011e-11
3.62289e-11
5.27775e-11
8.61596e-11
9.1899e-11
1.5386e-09
6.66975e-10
3.53053e-10
3.86138e-10
3.79626e-10
3.57721e-10
3.09601e-10
2.36947e-10
1.76922e-10
1.28254e-10
8.84841e-11
5.76966e-11
3.62173e-11
2.2451e-11
1.42771e-11
1.00076e-11
8.03639e-12
8.02937e-12
9.12737e-12
1.17324e-11
1.68191e-11
2.26376e-11
4.13753e-11
1.79671e-10
6.23262e-10
2.43699e-10
2.38828e-10
2.18772e-10
1.9371e-10
1.56563e-10
1.14392e-10
8.39136e-11
5.67423e-11
3.63347e-11
2.22902e-11
1.31362e-11
7.45681e-12
4.29291e-12
2.79378e-12
2.27357e-12
2.37307e-12
2.90961e-12
3.90804e-12
5.39285e-12
8.3087e-12
1.04283e-11
3.03819e-11
5.82353e-10
1.64221e-10
1.49653e-10
1.38684e-10
1.27951e-10
1.11885e-10
9.35798e-11
7.27505e-11
5.05639e-11
3.21654e-11
1.89651e-11
1.0369e-11
5.34468e-12
2.59945e-12
1.30407e-12
8.14121e-13
7.51382e-13
9.46539e-13
1.33815e-12
1.97298e-12
2.59338e-12
4.55278e-12
6.4495e-12
5.56317e-10
1.19479e-10
1.07703e-10
1.18061e-10
1.35495e-10
1.41022e-10
1.28519e-10
9.92735e-11
6.74554e-11
4.20427e-11
2.43101e-11
1.29258e-11
6.32383e-12
2.84728e-12
1.19483e-12
5.17518e-13
2.98467e-13
3.16613e-13
4.53826e-13
6.86551e-13
1.07787e-12
1.40268e-12
2.58492e-12
5.17129e-10
9.24346e-11
9.95825e-11
1.45898e-10
1.99136e-10
2.233e-10
1.95633e-10
1.37272e-10
8.62995e-11
5.23951e-11
2.99504e-11
1.58618e-11
7.71194e-12
3.44742e-12
1.36971e-12
4.97172e-13
1.93745e-13
1.23608e-13
1.57298e-13
2.51817e-13
3.62607e-13
6.87319e-13
9.43069e-13
4.89579e-10
8.85254e-11
1.29148e-10
2.07183e-10
2.90371e-10
3.53604e-10
2.73919e-10
1.68246e-10
9.72346e-11
5.79084e-11
3.2897e-11
1.74621e-11
8.61059e-12
3.85876e-12
1.55009e-12
5.629e-13
1.82882e-13
6.8507e-14
5.66946e-14
8.31002e-14
1.58858e-13
2.25989e-13
4.58817e-13
4.78358e-10
9.17735e-11
1.93213e-10
3.23879e-10
5.64933e-10
6.6166e-10
3.74622e-10
1.82102e-10
9.58741e-11
5.61573e-11
3.21425e-11
1.71545e-11
8.54007e-12
3.95922e-12
1.64409e-12
6.11279e-13
1.94687e-13
5.68763e-14
2.57574e-14
3.26092e-14
5.13558e-14
1.2369e-13
1.91001e-13
4.81006e-10
1.20263e-10
2.614e-10
6.28243e-10
9.55477e-10
9.07838e-10
5.15585e-10
2.06153e-10
8.44951e-11
4.93953e-11
2.79786e-11
1.48778e-11
7.58061e-12
3.62089e-12
1.60021e-12
6.20776e-13
2.04856e-13
5.64806e-14
1.67184e-14
1.32295e-14
2.80818e-14
5.22727e-14
1.19735e-13
4.85681e-10
1.39147e-10
4.29846e-10
9.80155e-10
1.20533e-09
1.01964e-09
5.8269e-10
2.05437e-10
8.5044e-11
4.26755e-11
2.26083e-11
1.16754e-11
6.00247e-12
2.99788e-12
1.38895e-12
5.72172e-13
2.00075e-13
5.70458e-14
1.4284e-14
6.48346e-15
1.07089e-14
3.45162e-14
6.60794e-14
5.01756e-10
1.94342e-10
6.62806e-10
1.26108e-09
1.31535e-09
1.09517e-09
5.16003e-10
2.22523e-10
8.70629e-11
3.5721e-11
1.70269e-11
8.47355e-12
4.39747e-12
2.21752e-12
1.06905e-12
4.72069e-13
1.79183e-13
5.54172e-14
1.34993e-14
4.03794e-15
5.9162e-15
1.34645e-14
4.60499e-14
5.15653e-10
2.47802e-10
8.85788e-10
1.35922e-09
1.35956e-09
9.98351e-10
4.89539e-10
2.56472e-10
8.32964e-11
2.85142e-11
1.20217e-11
5.78202e-12
2.97767e-12
1.48201e-12
7.23036e-13
3.42422e-13
1.43599e-13
4.87283e-14
1.22614e-14
2.8065e-15
2.40649e-15
1.00765e-14
2.16363e-14
5.63465e-10
3.17937e-10
1.03882e-09
1.36211e-09
1.24122e-09
8.01079e-10
5.23922e-10
2.62816e-10
7.77979e-11
2.15709e-11
8.09628e-12
3.76948e-12
1.86127e-12
8.96249e-13
4.30317e-13
2.13005e-13
9.97394e-14
3.80661e-14
1.07149e-14
2.21576e-15
1.06891e-15
2.69247e-15
1.16693e-14
5.86564e-10
3.58696e-10
1.04522e-09
1.31186e-09
1.03567e-09
7.55476e-10
5.39439e-10
2.65363e-10
7.53262e-11
1.67203e-11
5.20584e-12
2.27473e-12
1.08813e-12
4.94638e-13
2.2419e-13
1.11685e-13
5.8154e-14
2.58856e-14
8.25079e-15
1.82893e-15
5.69151e-16
1.5653e-15
4.54847e-15
6.75616e-10
3.60727e-10
1.0178e-09
1.22509e-09
8.87275e-10
7.17532e-10
5.17882e-10
2.60227e-10
7.63231e-11
1.3359e-11
3.1644e-12
1.27527e-12
5.92794e-13
2.5173e-13
1.03807e-13
4.83363e-14
2.6616e-14
1.40347e-14
5.49503e-15
1.35954e-15
2.72245e-16
3.36525e-16
1.81541e-15
7.26895e-10
3.50267e-10
9.26163e-10
1.08437e-09
7.18135e-10
6.44484e-10
4.7035e-10
2.31996e-10
7.13748e-11
1.17659e-11
1.8233e-12
6.40632e-13
2.93349e-13
1.19395e-13
4.39458e-14
1.77041e-14
9.21619e-15
5.5488e-15
2.8084e-15
8.89616e-16
1.52305e-16
1.23271e-16
3.87075e-16
8.83078e-10
3.45895e-10
7.51427e-10
7.63334e-10
6.45277e-10
6.07014e-10
4.18054e-10
1.93728e-10
5.64314e-11
9.10295e-12
9.71145e-13
2.7623e-13
1.27743e-13
5.06985e-14
1.6836e-14
5.4016e-15
2.36211e-15
1.48817e-15
1.00552e-15
4.47794e-16
8.93607e-17
3.18723e-17
8.50893e-17
1.03334e-09
3.56727e-10
5.36342e-10
5.63999e-10
6.39877e-10
5.73241e-10
3.38939e-10
1.3273e-10
3.35961e-11
4.6299e-12
3.8011e-13
9.06169e-14
4.45934e-14
1.80033e-14
5.5973e-15
1.48587e-15
4.61768e-16
2.55269e-16
2.19168e-16
1.63282e-16
4.11268e-17
1.03138e-17
1.78041e-17
1.19519e-09
3.94285e-10
4.55969e-10
5.61934e-10
6.44408e-10
4.86236e-10
2.17988e-10
6.21318e-11
1.14259e-11
1.11481e-12
6.91013e-14
1.91132e-14
1.06485e-14
4.51758e-15
1.37489e-15
3.12351e-16
6.50432e-17
2.73348e-17
3.26669e-17
4.07474e-17
1.6626e-17
3.74928e-18
3.43417e-18
1.40926e-09
6.19688e-10
5.19931e-10
6.52493e-10
5.88038e-10
2.75773e-10
7.04155e-11
1.15562e-11
1.13009e-12
5.70036e-14
4.06843e-15
1.96814e-15
1.28846e-15
5.91693e-16
1.8492e-16
3.68601e-17
5.46169e-18
1.8039e-18
3.53893e-18
7.53026e-18
5.9302e-18
1.46811e-18
7.50095e-19
0.0374677
0.040498
0.0129001
0.00295857
-7.03053e-08
0.000113331
0.000987665
0.00153868
0.000749885
0.000559707
0.00183845
0.00618965
0.000932323
0.00151459
0.00340778
0.00534823
0.000729408
0.000689404
0.000295514
0.000118714
4.58626e-05
8.25255e-05
0.000232165
0.000183974
4.55211e-05
0.000825288
0.0010302
0.00103012
0.000331945
0.000703009
0.00102095
0.000828712
0.000121027
5.03365e-05
2.48927e-06
5.82977e-07
-1.02162e-10
-3.63189e-12
5.08875e-25
-4.95142e-26
9.70749e-07
9.8675e-07
2.83857e-07
4.16437e-08
1.37499e-06
1.30723e-06
9.48551e-07
3.01991e-07
1.38221e-06
6.79473e-07
6.40405e-07
4.36502e-07
2.46599e-07
3.95814e-07
3.97175e-07
1.84208e-06
2.31977e-08
2.26427e-08
1.65787e-06
5.51179e-06
5.06616e-08
3.83287e-07
5.12283e-06
5.44999e-06
1.1265e-07
1.12881e-07
2.27363e-06
5.24458e-06
1.8864e-07
1.49432e-07
3.79413e-07
4.4376e-08
2.90579e-07
1.6107e-07
1.0019e-07
8.83795e-08
2.27645e-07
2.29188e-07
1.12426e-07
6.37513e-08
7.30939e-08
1.02193e-07
1.07681e-07
1.08444e-07
9.52273e-09
3.58126e-08
5.98622e-08
5.67988e-08
2.10183e-09
2.27403e-09
6.5537e-09
7.98745e-09
3.36554e-10
4.7813e-10
5.38253e-10
6.65149e-10
4.74825e-11
4.71575e-11
6.44649e-11
7.92625e-11
9.35273e-12
1.2448e-11
1.35645e-11
1.71684e-11
3.26988e-12
3.73119e-12
5.30359e-12
6.24283e-12
1.39535e-12
1.87696e-12
2.13033e-12
2.88425e-12
6.32621e-13
7.48662e-13
1.10047e-12
1.26079e-12
3.07159e-13
4.55443e-13
5.62433e-13
7.95669e-13
1.89806e-13
2.64065e-13
4.12476e-13
5.13274e-13
1.33468e-13
2.06844e-13
2.79779e-13
4.23974e-13
8.64547e-14
1.27067e-13
2.16573e-13
2.68572e-13
5.95045e-14
8.66837e-14
1.23488e-13
2.09766e-13
2.5078e-14
4.12177e-14
7.42673e-14
9.66577e-14
1.21881e-14
1.98831e-14
3.1255e-14
5.81491e-14
4.16226e-15
7.26411e-15
1.25463e-14
2.02555e-14
1.10025e-15
1.82144e-15
3.22028e-15
6.47725e-15
2.03033e-16
3.55125e-16
6.3796e-16
1.23392e-15
3.8371e-17
6.59923e-17
1.22436e-16
2.30456e-16
6.58362e-18
9.93785e-18
1.54703e-17
2.60117e-17
9.40221e-19
1.10595e-18
1.47365e-18
2.01878e-18
0.000383551
0.000350986
0.00044444
0.000675014
0.00183835
0.00113349
0.000248187
0.000102603
0.00524771
0.0223711
0.0223857
0.0223846
0.00684761
0.00226207
8.2817e-05
4.99606e-06
0.00338194
0.00809242
0.00428363
0.00374571
0.00209315
0.00188162
0.00497932
0.00332368
0.00110667
0.000251387
0.00869247
0.0223818
0.0223833
0.0223875
0.0223857
0.014195
0.00411567
0.00227808
0.00417559
0.00572973
0.0024237
0.00244
0.00740564
0.0068512
0.0099074
0.00997936
0.00649379
0.00528778
0.012692
0.0131106
0.0110073
0.0110742
0.0193758
0.0210411
0.0149706
0.0149697
0.0143922
0.0118985
0.00453571
0.00239481
0.00269816
0.00640658
0.00917645
0.00997872
0.00997302
0.00581961
0.0046143
0.00314707
0.00204596
0.00156798
0.00116373
0.0018495
0.00318163
0.00408904
0.00594631
0.00799157
0.00773905
0.00411974
0.00345029
0.0073709
8.13019e-05
0.0004353
0.00606656
0.00467186
0.000291733
0.000244833
0.000803511
0.00113701
0.000800585
0.000302102
7.17702e-05
7.08908e-05
7.08988e-05
0.000641431
0.00154753
0.00161827
0.0016472
0.00552177
0.00737133
8.17835e-05
6.12121e-05
9.43814e-05
0.000488211
0.000406865
0.000187281
4.85228e-05
4.89586e-05
0.000377725
0.000762633
8.77026e-05
7.08908e-05
7.08908e-05
7.08908e-05
0.000402184
0.00105362
0.0014094
0.00164995
0.00667024
0.000410863
0.000113186
0.000139842
0.000189889
0.000186781
0.000192984
0.000172073
4.85247e-05
0.000103188
0.00267612
0.00312159
0.00102117
0.000431868
0.000264806
0.000302934
0.000474507
0.000554137
0.00385897
0.00737474
0.000417513
0.000140755
0.00016051
0.000205375
0.00024442
0.000385214
0.000386909
0.000176187
0.000191817
0.00356293
0.0046919
0.00468646
0.00456994
0.00457664
0.00364177
0.00177252
0.00461367
0.00737474
0.00737474
4.89735e-12
2.6362e-11
1.77171e-13
2.6362e-11
2.83374e-06
7.36462e-05
0.000196336
0.000257103
0.000588014
0.000863498
0.000935243
0.00102809
0.00137288
0.00208917
0.00271162
0.00361133
0.00531932
0.00653302
0.00735584
1.17597e-08
2.82351e-08
7.26425e-08
1.04454e-07
1.06189e-08
1.0651e-08
2.3975e-07
9.48723e-06
-8.01928e-25
-1.03884e-14
1.28736e-24
6.3589e-12
1.01946e-06
5.74945e-05
0.000423592
0.000867424
0.000890972
0.00069139
0.000966292
9.1833e-08
1.38645e-07
2.32231e-07
5.51657e-07
6.1573e-07
6.34262e-07
2.46379e-06
2.63312e-09
5.8989e-11
1.66562e-10
5.46587e-11
-1.94631e-13
1.54197e-06
8.54115e-06
5.1163e-06
1.9423e-05
1.53137e-05
1.16427e-06
2.08115e-05
9.05422e-08
7.59975e-08
7.61599e-08
6.32903e-07
3.57574e-06
6.37034e-06
6.31104e-06
4.77792e-06
6.52286e-11
2.28819e-22
-6.58818e-14
1.70997e-19
2.45008e-07
5.71161e-07
1.8572e-07
5.91058e-07
4.08347e-08
1.16576e-06
8.17045e-07
3.72607e-07
2.1346e-07
7.61651e-08
1.82347e-07
4.19248e-06
6.87037e-06
7.46224e-06
7.45819e-06
1.28657e-06
1.70198e-08
4.72318e-07
1.75162e-06
3.3588e-07
2.04899e-07
1.80732e-07
4.09083e-08
1.23233e-08
9.60705e-09
8.21925e-07
4.99623e-06
4.34722e-06
6.76143e-07
7.03898e-07
3.31295e-06
8.12619e-06
8.12016e-06
6.36005e-06
5.20309e-06
8.03832e-07
3.55855e-06
3.9549e-06
2.06237e-06
6.25783e-09
1.56841e-08
5.0184e-08
7.34298e-08
1.16873e-08
1.4761e-07
5.85197e-06
5.85294e-06
3.82139e-06
1.81243e-06
4.58566e-06
7.36238e-06
1.11218e-06
3.51335e-07
1.85267e-06
2.22342e-06
1.55973e-06
7.30742e-07
7.05399e-07
6.22374e-09
3.08321e-08
3.28599e-07
5.31255e-07
1.07309e-06
3.16465e-08
5.66405e-06
3.62106e-06
2.28417e-06
1.857e-06
5.68801e-06
2.71376e-06
6.08347e-09
6.07463e-09
1.81676e-08
1.62578e-07
1.93778e-07
1.57003e-07
1.56815e-07
2.67028e-07
4.33788e-07
1.52025e-06
3.04165e-06
3.49598e-06
3.25663e-08
5.5918e-07
1.18624e-07
1.18874e-07
1.26632e-06
5.20555e-06
1.23502e-06
6.08108e-09
6.21353e-09
8.27691e-09
1.02552e-06
1.80795e-06
1.80585e-06
1.55649e-06
1.27558e-06
1.98457e-06
2.88781e-06
3.47713e-06
3.4848e-06
5.91335e-08
4.42991e-08
1.18557e-07
2.29873e-07
3.81691e-07
1.5979e-06
1.72653e-06
1.17157e-08
5.14241e-08
6.31817e-08
1.15279e-07
9.39972e-07
1.75141e-06
2.387e-06
2.38974e-06
2.29869e-06
1.25979e-06
1.02658e-06
3.50294e-06
8.509e-07
4.42075e-08
1.6233e-07
8.63377e-07
8.5732e-07
6.56083e-07
1.30164e-06
7.86024e-07
7.7891e-07
4.60208e-07
2.62482e-07
1.7357e-07
1.40743e-07
9.28909e-08
8.62054e-07
9.7712e-07
2.04879e-08
2.04993e-08
1.46593e-06
2.49057e-06
2.36665e-08
2.1947e-08
3.02128e-08
2.83636e-07
6.1618e-07
6.9407e-07
6.00614e-07
6.02419e-07
6.03525e-07
5.28379e-07
2.31922e-07
2.09159e-07
9.29173e-08
3.04789e-08
3.69488e-08
4.1076e-08
1.88518e-08
1.85192e-08
1.32344e-06
1.11657e-08
5.18182e-09
4.96331e-09
4.19857e-09
3.57893e-08
1.14971e-07
1.59821e-07
9.42458e-08
9.70688e-09
8.6067e-10
1.54288e-07
2.26965e-07
2.27019e-07
3.45562e-08
3.8758e-09
8.35856e-10
1.59015e-08
1.86335e-08
4.36814e-07
7.56438e-09
3.02708e-09
4.21264e-09
4.19188e-09
2.82627e-09
9.65731e-10
8.59383e-10
8.58768e-10
8.59383e-10
8.6002e-10
8.6067e-10
8.61408e-10
1.00735e-09
1.83987e-08
1.81707e-08
2.73879e-09
2.03899e-08
3.28345e-08
1.42274e-07
4.54308e-09
2.7854e-09
2.54161e-09
2.03806e-09
1.6148e-09
1.24065e-09
9.66629e-10
8.58169e-10
9.0694e-10
9.56386e-10
9.39873e-10
9.89785e-10
1.01664e-09
1.26218e-09
3.21222e-09
1.94031e-09
8.79814e-09
3.28817e-08
7.28177e-08
7.0507e-10
6.64671e-10
6.02483e-10
5.47649e-10
4.95375e-10
4.89644e-10
5.04836e-10
5.78036e-10
7.36164e-10
9.31356e-10
1.29933e-09
1.82684e-09
2.4717e-09
3.86417e-09
4.8099e-09
2.96705e-09
2.95964e-09
2.4586e-08
5.35752e-08
9.89096e-11
9.95066e-11
1.05143e-10
1.19154e-10
1.46935e-10
1.90913e-10
2.54531e-10
3.40634e-10
4.83715e-10
7.61014e-10
1.24538e-09
1.88643e-09
2.67558e-09
3.53151e-09
3.94461e-09
1.75908e-09
7.236e-09
3.08044e-08
1.73123e-08
2.05382e-11
2.46504e-11
3.11847e-11
4.08909e-11
5.51266e-11
7.72107e-11
1.10721e-10
1.64017e-10
2.46975e-10
3.91186e-10
6.38561e-10
9.66158e-10
1.2454e-09
1.89255e-09
2.51053e-09
1.46257e-09
3.76049e-09
3.08586e-08
1.24135e-08
8.12008e-12
1.05105e-11
1.43899e-11
1.99792e-11
2.89252e-11
4.23233e-11
6.24725e-11
9.64386e-11
1.57397e-10
2.68773e-10
4.70374e-10
7.86581e-10
1.26486e-09
2.08045e-09
2.44571e-09
1.41993e-09
1.41818e-09
2.10044e-08
1.24277e-08
3.44088e-12
4.97209e-12
7.33712e-12
1.0936e-11
1.66073e-11
2.60571e-11
4.24431e-11
7.00767e-11
1.25163e-10
2.36896e-10
4.68041e-10
8.90871e-10
1.60944e-09
2.76266e-09
1.89769e-09
1.38177e-09
1.69912e-08
2.75246e-08
9.95184e-09
1.77573e-12
2.63711e-12
4.05966e-12
6.29721e-12
1.00354e-11
1.68495e-11
2.86988e-11
5.06241e-11
9.81314e-11
2.06757e-10
4.47504e-10
9.16674e-10
1.73035e-09
3.24369e-09
9.918e-10
1.64676e-09
6.76373e-08
4.63275e-08
9.13613e-09
1.01614e-12
1.64016e-12
2.61709e-12
4.20728e-12
6.90127e-12
1.11508e-11
1.7133e-11
2.94795e-11
5.79263e-11
1.39793e-10
3.62643e-10
8.88128e-10
1.62533e-09
3.11373e-09
9.85148e-10
4.09142e-08
6.82791e-08
4.61248e-08
9.0646e-09
7.55827e-13
1.22249e-12
2.02517e-12
3.37308e-12
5.63118e-12
8.98355e-12
1.48266e-11
2.49612e-11
4.35087e-11
8.73455e-11
2.24707e-10
6.33873e-10
1.5347e-09
2.7028e-09
2.95236e-09
5.77373e-08
6.82809e-08
2.76152e-08
7.3297e-09
5.57869e-13
9.94127e-13
1.70764e-12
2.96802e-12
5.19624e-12
8.90687e-12
1.52254e-11
2.57039e-11
4.28114e-11
7.33382e-11
1.51e-10
4.27602e-10
1.42929e-09
2.83435e-09
6.36864e-09
4.65741e-08
4.93742e-08
1.96137e-08
6.68703e-09
4.39915e-13
7.7753e-13
1.42546e-12
2.62155e-12
4.861e-12
8.90237e-12
1.60388e-11
2.7918e-11
4.60006e-11
7.22139e-11
1.16943e-10
2.0734e-10
1.23906e-09
3.70728e-09
7.1011e-09
9.24591e-09
1.56799e-08
6.04943e-09
6.97874e-09
2.89189e-13
5.66217e-13
1.10831e-12
2.18436e-12
4.35422e-12
8.5767e-12
1.64534e-11
2.99805e-11
5.04278e-11
7.76933e-11
1.13839e-10
1.48827e-10
4.94045e-10
5.49671e-09
1.14871e-08
1.03424e-08
4.71709e-09
4.7073e-09
4.7165e-09
1.80441e-13
3.61007e-13
7.65344e-13
1.65706e-12
3.60544e-12
7.71797e-12
1.59009e-11
3.06792e-11
5.41808e-11
8.63147e-11
1.23135e-10
1.46881e-10
1.48666e-10
2.57767e-09
3.21156e-08
4.9629e-08
2.00996e-08
4.71171e-09
3.48982e-08
8.6772e-14
1.98001e-13
4.62129e-13
1.11157e-12
2.68943e-12
6.32424e-12
1.41055e-11
2.90793e-11
5.45837e-11
9.33411e-11
1.46074e-10
1.96261e-10
2.9483e-10
8.4288e-09
3.29265e-08
1.02299e-07
1.03892e-07
4.7084e-09
8.80346e-08
3.5388e-14
8.89864e-14
2.34555e-13
6.41514e-13
1.7492e-12
4.57532e-12
1.11781e-11
2.49478e-11
5.04302e-11
9.308e-11
1.60167e-10
2.48734e-10
2.98685e-10
2.83308e-09
3.99463e-08
9.83461e-08
1.4098e-07
6.25091e-08
1.49027e-07
1.11983e-14
3.1874e-14
9.60684e-14
3.0266e-13
9.4211e-13
2.79402e-12
7.6222e-12
1.87519e-11
4.14852e-11
8.31259e-11
1.53337e-10
2.67193e-10
4.38041e-10
8.46946e-10
2.11673e-08
6.44979e-08
1.31232e-07
1.49171e-07
1.49028e-07
2.67235e-15
8.46272e-15
2.89933e-14
1.04845e-13
3.83574e-13
1.32652e-12
4.16292e-12
1.15846e-11
2.8552e-11
6.35319e-11
1.2852e-10
2.4545e-10
4.22439e-10
5.84645e-10
7.02705e-10
2.47404e-08
9.43594e-08
1.49169e-07
1.08423e-07
4.32938e-16
1.41864e-15
5.75054e-15
2.52062e-14
1.12114e-13
4.6612e-13
1.73496e-12
5.6752e-12
1.62267e-11
4.07477e-11
9.28372e-11
1.90777e-10
3.72328e-10
6.41606e-10
9.66573e-10
2.17731e-09
2.68875e-08
6.97787e-08
8.95054e-09
4.39076e-17
1.37826e-16
5.70724e-16
2.9003e-15
1.6293e-14
8.69995e-14
4.09441e-13
1.66385e-12
5.78171e-12
1.7346e-11
4.63413e-11
1.10911e-10
2.49683e-10
5.12409e-10
8.99209e-10
1.46642e-09
3.65472e-09
2.16723e-09
9.25833e-10
2.7936e-18
6.6058e-18
2.36842e-17
1.28017e-16
8.54564e-16
5.85282e-15
3.65632e-14
1.95862e-13
8.81533e-13
3.25956e-12
9.99069e-12
2.85749e-11
7.71201e-11
2.16905e-10
5.96931e-10
1.11068e-09
1.26291e-09
1.1657e-09
9.25833e-10
)
;

boundaryField
{
    leftWall
    {
        type            zeroGradient;
    }
    rightWall
    {
        type            zeroGradient;
    }
    lowerWall
    {
        type            zeroGradient;
    }
    atmosphere
    {
        type            inletOutlet;
        inletValue      uniform 0;
        value           nonuniform List<scalar> 
46
(
1.40926e-09
6.19688e-10
5.19931e-10
6.52493e-10
5.88038e-10
0
0
0
0
0
0
0
0
0
0
0
0
0
0
7.53026e-18
5.9302e-18
1.46811e-18
7.50095e-19
9.40222e-19
0
0
0
0
0
0
0
0
0
0
0
0
0
0
0
0
0
5.96931e-10
1.11068e-09
1.26291e-09
1.1657e-09
9.25833e-10
)
;
    }
    defaultFaces
    {
        type            empty;
    }
}


// ************************************************************************* //
