/*--------------------------------*- C++ -*----------------------------------*\
| =========                 |                                                 |
| \\      /  F ield         | OpenFOAM: The Open Source CFD Toolbox           |
|  \\    /   O peration     | Version:  2312                                  |
|   \\  /    A nd           | Website:  www.openfoam.com                      |
|    \\/     M anipulation  |                                                 |
\*---------------------------------------------------------------------------*/
FoamFile
{
    version     2.0;
    format      ascii;
    arch        "LSB;label=32;scalar=64";
    class       volScalarField;
    location    "4.8";
    object      alpha.oil;
}
// * * * * * * * * * * * * * * * * * * * * * * * * * * * * * * * * * * * * * //

dimensions      [0 0 0 0 0 0 0];

internalField   nonuniform List<scalar> 
2268
(
9.12651e-10
9.25079e-10
9.73333e-10
2.51211e-09
8.31115e-09
1.24594e-08
1.14377e-08
8.59012e-09
5.50124e-09
3.3868e-09
2.12958e-09
1.55245e-09
1.15024e-09
8.86676e-10
8.00561e-10
9.26118e-10
1.40168e-09
2.05127e-09
7.2217e-09
7.01084e-08
1.63512e-05
4.5168e-05
4.51439e-05
2.58349e-09
1.27664e-09
2.98997e-09
1.97613e-08
5.47127e-08
7.03943e-08
7.09562e-08
5.31903e-08
2.8559e-08
1.52964e-08
7.93235e-09
4.86588e-09
3.13044e-09
2.66864e-09
2.48206e-09
2.92215e-09
5.00271e-09
1.15375e-08
3.35242e-08
1.96101e-07
3.07627e-06
3.19187e-05
3.92741e-05
1.6417e-08
9.44554e-09
2.98999e-09
2.53952e-08
6.07014e-08
7.45337e-08
7.43267e-08
6.22411e-08
3.03862e-08
1.25554e-08
9.68583e-09
5.35075e-09
4.187e-09
5.36077e-09
6.01856e-09
5.43729e-09
3.07012e-08
2.41929e-07
3.69083e-07
3.30745e-07
1.66563e-07
1.50552e-06
1.18856e-06
3.46048e-08
1.33643e-06
5.16618e-06
3.88994e-09
3.88311e-09
3.87768e-09
3.86002e-09
3.84272e-09
3.83515e-09
3.82004e-09
3.82333e-09
3.82333e-09
3.83238e-09
3.83377e-09
3.83987e-09
3.84745e-09
5.68369e-09
7.11976e-08
2.13084e-07
1.91311e-07
3.66379e-08
4.40722e-10
1.16349e-08
0.00251038
0.00276106
0.00299882
0.00282039
0.00210418
0.000895742
8.96334e-05
6.28302e-06
5.51548e-05
0.000183665
0.000287711
0.000116063
6.0465e-05
0.000107782
2.63216e-05
3.85347e-09
3.86076e-09
4.76197e-08
5.31282e-08
3.86204e-08
3.26642e-08
3.82578e-09
3.90333e-08
0.00532093
0.0054324
0.00554586
0.0055469
0.00554659
0.00407837
0.000697344
6.25915e-06
0.000146953
0.000639234
0.00063911
0.000596012
0.000248591
0.000655557
0.0013915
0.000604997
8.00293e-05
4.76358e-08
0.000324328
0.00131419
0.000697495
3.00105e-08
3.62627e-08
0.000411797
0.000602475
0.00140184
0.00248115
0.00230209
0.00173972
0.000909004
0.000100048
4.87142e-05
0.00022703
0.000587272
0.000573824
0.000169751
0.000303443
0.00222017
0.00306083
0.00127295
0.0127989
0.0556414
0.0707711
0.0606756
0.024586
0.000356543
-1.88772e-22
-6.07516e-25
-7.08268e-23
7.53325e-09
1.19007e-08
1.73659e-08
3.26151e-05
5.05905e-05
3.68543e-05
6.46178e-05
0.000159068
0.000186092
0.000124517
0.000124587
0.00116817
0.00741892
0.0284345
0.0913161
0.0979804
0.0979792
0.0979843
0.0975294
0.019968
0.0267995
0.0275182
0.0268123
0.026549
0.0265481
0.026547
0.0265477
0.0265458
0.0265469
0.0265469
0.0265478
0.0265478
0.0275073
0.0285876
0.0283991
0.0273877
0.0267722
0.0267713
0.0267713
0.0406544
0.0467074
0.0392037
0.033364
0.0326395
0.0284718
0.0265441
0.0265458
0.0270655
0.0280356
0.0288023
0.0378756
0.0585967
0.0837774
0.0927461
0.106101
0.119185
0.130121
0.147524
0.248083
0.237517
0.211975
0.167359
0.158617
0.193516
0.218758
0.230738
0.248438
0.291667
0.363911
0.41628
0.457553
0.470145
0.460616
0.460892
0.438482
0.417698
0.422509
0.255857
0.208412
0.217236
0.179016
0.146638
0.144793
0.15268
0.194528
0.244103
0.277218
0.316853
0.438202
0.493755
0.49374
0.493755
0.271595
0.101591
0.0666544
0.332754
0.237978
0.00459189
0.00500865
0.00421867
0.00423775
0.0107503
0.0238841
0.0318176
0.0208853
0.0115041
0.013948
0.0304422
0.0910161
0.484873
0.479489
0.0702682
0.0296099
0.029569
0.234616
0.0768105
0.00470091
0.00459015
0.0077676
0.00783351
0.0143379
0.0104259
0.0103549
0.00646499
0.00387133
0.00387133
0.00515232
0.0142521
0.397368
0.478468
0.276752
0.0409038
0.0304001
0.101282
0.0386725
0.00720627
0.00706402
0.049279
0.0478759
0.0220587
0.022383
0.0198106
0.00576924
0.00387133
0.00387135
0.00387132
0.00603744
0.261062
0.477409
0.329905
0.0697401
0.0414687
0.0340638
0.00367943
0.0036852
0.00662131
0.0801174
0.0873301
0.0624328
0.0493792
0.0215959
0.0173329
0.10261
0.0755418
0.00524251
0.00591083
0.0349599
0.256324
0.0942843
0.0651008
0.0414148
0.03186
-1.84357e-21
-1.22377e-22
1.34192e-20
4.37529e-06
3.88949e-07
7.61143e-07
1.01591e-06
9.55531e-07
2.92849e-07
8.99681e-10
1.49912e-05
5.18128e-05
4.67242e-05
0.00013652
0.000234053
0.0116617
0.0282807
0.0158816
0.00902404
0.0259864
0.0598622
0.0571406
0.0429746
0.0214054
0.0276313
0.0278421
0.0154221
0.00283586
-8.08118e-12
2.25771e-16
1.40016e-10
2.14441e-25
1.4407e-26
5.48837e-07
5.27933e-06
3.26672e-06
4.56506e-06
5.2015e-06
0.00134981
0.00214158
6.09129e-05
1.54764e-12
1.32133e-12
-1.93105e-13
-1.56026e-05
0.000114861
0.638643
0.650386
0.668977
0.581934
0.413764
0.255877
0.13459
0.132065
0.116489
0.0587206
0.0159727
5.40064e-06
0.0104224
0.0239372
0.000305517
0.000306507
0.000316484
0.0351102
0.0685441
0.0875469
0.128901
0.207029
0.378328
0.959589
0.98399
0.983704
0.983373
0.867434
0.75131
0.660118
0.668028
0.718368
0.710475
0.693032
0.651656
0.60353
0.548468
0.522466
0.527379
0.663396
0.781936
0.809433
0.817333
0.85874
0.931681
0.985944
0.981752
0.993538
0.961178
0.951145
0.951819
0.926777
0.923694
0.97102
0.986356
0.98549
0.995645
0.990571
0.980096
0.982227
0.991379
0.99593
0.997902
0.994181
0.981705
0.976326
0.992536
0.999126
0.999125
0.998604
0.994294
0.970918
0.974529
0.992241
0.960482
0.958948
0.999705
0.999711
0.99971
0.99971
0.999698
0.99968
0.999678
0.999676
0.999674
0.999619
0.993968
0.98399
0.969663
0.967062
0.985295
0.997861
0.998779
0.997846
0.99853
0.999151
0.999713
0.999126
0.998582
0.999714
0.999712
0.999712
0.999711
0.997854
0.99613
0.998469
0.997519
0.942586
0.8643
0.74496
0.586472
0.396269
0.34379
0.4029
0.533858
0.998875
0.999436
0.999707
0.999709
0.999716
0.999716
0.999717
0.999717
0.999392
0.994971
0.986072
0.89523
0.704156
0.488267
0.305631
0.183192
0.0936731
0.02982
-3.46945e-19
-5.63249e-09
-1.8407e-25
1.51389e-25
1.38199e-15
0.999355
0.999358
0.999659
0.998277
0.998173
0.999683
0.999718
0.999718
0.976442
0.809767
0.492171
0.201236
0.0691875
0.00620193
4.15658e-11
3.66626e-11
5.96666e-11
6.77637e-11
1.25408e-09
5.20801e-08
1.73304e-07
4.0418e-07
5.77223e-07
0.999353
0.999127
0.998069
0.993077
0.991931
0.995033
0.998796
0.940641
0.687402
0.262638
0.00958014
1.32834e-19
-3.98583e-20
2.169e-24
2.71836e-06
8.78649e-06
1.57719e-05
6.3927e-06
3.62322e-07
1.19411e-07
3.80602e-07
1.75673e-06
5.48128e-06
0.784328
0.793075
0.807189
0.813863
0.807091
0.764939
0.617343
0.332744
0.0631302
3.7823e-16
5.19023e-20
6.00097e-22
2.65607e-09
1.0406e-09
1.15434e-09
1.2735e-05
5.43835e-05
4.69915e-05
8.81203e-06
1.41013e-10
6.58391e-10
5.89055e-06
1.85545e-05
0.0268835
0.0327923
0.0466451
0.0662386
0.0666229
0.0443885
0.00884981
7.59005e-15
7.58737e-15
4.57479e-09
5.26823e-08
5.35268e-08
5.86228e-09
7.77676e-10
6.11194e-10
4.89959e-05
5.43731e-05
4.7278e-05
2.30708e-05
-1.99363e-10
1.24786e-06
1.58539e-05
1.86246e-05
7.59019e-15
7.58729e-15
7.58999e-15
7.58728e-15
7.58999e-15
7.58727e-15
7.58999e-15
7.58729e-15
1.69644e-07
2.57136e-07
1.47792e-07
6.08411e-08
4.81051e-09
9.80775e-08
4.91469e-05
5.53047e-05
4.03943e-05
3.10863e-05
3.24868e-06
1.4229e-10
5.88658e-06
1.86573e-05
1.8726e-05
5.27843e-10
2.54353e-10
1.41741e-10
6.3869e-12
3.34276e-10
2.11577e-09
9.59125e-09
4.06669e-08
2.36956e-07
2.56443e-07
1.68595e-07
3.80294e-07
1.14979e-05
5.64925e-05
5.74179e-05
3.36757e-05
3.02254e-06
4.30872e-08
1.70194e-09
-1.93238e-14
1.58062e-06
1.61547e-05
1.52497e-05
6.81227e-09
5.33907e-09
1.25739e-09
1.67346e-09
6.67364e-08
2.26406e-07
2.56656e-07
3.91087e-08
7.7374e-08
2.24793e-07
7.42103e-07
3.90508e-06
4.11742e-05
4.23461e-05
2.75525e-05
1.12845e-06
6.38665e-08
4.47294e-08
5.85242e-08
2.57465e-08
2.32621e-08
2.98429e-06
1.40339e-06
1.29435e-08
1.23439e-08
7.31469e-09
2.47175e-08
1.75671e-07
3.89581e-07
3.89559e-07
2.0671e-07
6.08012e-08
6.0785e-08
1.31993e-06
5.92398e-06
8.7725e-06
2.34683e-06
1.60965e-07
9.59416e-08
6.13948e-08
1.20507e-07
1.34901e-07
6.4825e-08
2.77206e-08
1.17467e-07
3.91454e-07
1.82594e-08
3.43371e-08
4.85033e-08
7.22887e-08
2.16547e-07
3.89583e-07
3.89557e-07
3.78396e-07
6.34719e-08
2.19455e-07
8.5213e-07
1.27248e-06
7.5628e-09
4.31178e-08
3.54255e-08
1.82096e-08
1.76088e-08
1.93365e-08
1.14576e-08
2.77711e-09
2.68814e-09
3.65661e-07
6.21126e-07
2.27781e-08
3.00843e-08
6.26336e-08
9.60343e-08
1.25139e-07
1.77656e-07
2.06769e-07
1.85366e-07
1.23343e-07
1.04315e-07
7.43836e-08
6.3121e-09
7.46782e-09
1.20532e-08
8.27298e-09
5.92087e-09
4.72178e-09
3.6678e-09
2.73846e-09
2.13765e-09
2.13924e-09
9.52565e-08
6.1977e-07
1.49321e-08
2.18941e-08
3.72518e-08
5.66858e-08
7.22942e-08
7.32268e-08
6.62646e-08
6.18702e-08
3.31205e-08
9.30001e-09
6.11689e-09
6.24606e-09
5.8644e-09
4.35624e-09
3.45646e-09
2.78566e-09
2.57288e-09
2.73228e-09
3.04153e-09
3.10896e-09
2.30604e-09
2.28919e-09
3.60849e-07
7.45936e-09
1.48161e-08
2.46533e-08
3.45641e-08
3.69568e-08
3.72833e-08
3.13709e-08
2.27511e-08
1.3352e-08
7.92844e-09
6.08461e-09
5.01744e-09
3.70599e-09
2.77468e-09
2.25571e-09
2.08648e-09
2.17022e-09
2.45751e-09
2.82128e-09
3.10591e-09
2.28328e-09
1.65486e-08
2.18037e-07
4.72949e-09
1.09403e-08
1.72202e-08
2.16219e-08
2.19921e-08
2.083e-08
1.61689e-08
1.15176e-08
7.49928e-09
5.43596e-09
3.89842e-09
2.79368e-09
2.04418e-09
1.62759e-09
1.45723e-09
1.47899e-09
1.6284e-09
1.88685e-09
2.28601e-09
2.88355e-09
3.56337e-09
3.55907e-09
4.17742e-08
3.09498e-09
8.09754e-09
1.22564e-08
1.44608e-08
1.41623e-08
1.21588e-08
8.79338e-09
5.95396e-09
4.0032e-09
2.81778e-09
1.94777e-09
1.3801e-09
1.04653e-09
8.79669e-10
8.42767e-10
9.02614e-10
1.03784e-09
1.25396e-09
1.58716e-09
2.12702e-09
2.62536e-09
3.6241e-09
7.17218e-09
2.78524e-09
5.98302e-09
8.30924e-09
8.95703e-09
8.04464e-09
6.47621e-09
4.47061e-09
2.90386e-09
1.92057e-09
1.29529e-09
8.98121e-10
6.51737e-10
5.10163e-10
4.43294e-10
4.42283e-10
4.97875e-10
6.04667e-10
7.71724e-10
9.93078e-10
1.34303e-09
1.8706e-09
2.40119e-09
5.74157e-09
2.66348e-09
4.39508e-09
5.51407e-09
5.35855e-09
4.38848e-09
3.28296e-09
2.09459e-09
1.36929e-09
9.28753e-10
6.50051e-10
4.71755e-10
3.51782e-10
2.73486e-10
2.3149e-10
2.27754e-10
2.62467e-10
3.3395e-10
4.46571e-10
6.08061e-10
8.36463e-10
1.02747e-09
1.68613e-09
2.45893e-09
2.58276e-09
3.38872e-09
3.68701e-09
3.25013e-09
2.52335e-09
1.76243e-09
1.11438e-09
8.03286e-10
6.0352e-10
4.74708e-10
3.69657e-10
2.76903e-10
2.01343e-10
1.49997e-10
1.28256e-10
1.37434e-10
1.76522e-10
2.46409e-10
3.48073e-10
4.72879e-10
6.74827e-10
8.18965e-10
1.37362e-09
2.53795e-09
2.68345e-09
2.59847e-09
2.21494e-09
1.70096e-09
1.2021e-09
8.30552e-10
6.52943e-10
5.73966e-10
4.94281e-10
3.98995e-10
2.96384e-10
2.02838e-10
1.31714e-10
8.9672e-11
7.68452e-11
9.08499e-11
1.29514e-10
1.90904e-10
2.7798e-10
3.60743e-10
5.68928e-10
7.06314e-10
2.53372e-09
2.34505e-09
2.10923e-09
1.79704e-09
1.49314e-09
1.15268e-09
7.46082e-10
6.70301e-10
6.29163e-10
5.59123e-10
4.5906e-10
3.41976e-10
2.29873e-10
1.4039e-10
8.10421e-11
5.19639e-11
4.82915e-11
6.59459e-11
1.01183e-10
1.53344e-10
2.3327e-10
3.09047e-10
4.73379e-10
2.55498e-09
2.16605e-09
1.93139e-09
1.74071e-09
1.52981e-09
1.10653e-09
7.22899e-10
7.29927e-10
6.78629e-10
6.05893e-10
5.02284e-10
3.7977e-10
2.57433e-10
1.56781e-10
8.46887e-11
4.40315e-11
2.98072e-11
3.45845e-11
5.48235e-11
9.03237e-11
1.32826e-10
2.29951e-10
3.02696e-10
2.62799e-09
2.13666e-09
1.97579e-09
2.43205e-09
4.07815e-09
8.51494e-10
7.61005e-10
9.61247e-10
6.9352e-10
6.08459e-10
5.04252e-10
3.87762e-10
2.69272e-10
1.66553e-10
8.99338e-11
4.38324e-11
2.26361e-11
1.99017e-11
3.06784e-11
5.08441e-11
9.59106e-11
1.41973e-10
2.36372e-10
2.63434e-09
2.23904e-09
1.9169e-09
2.19464e-09
9.11552e-09
6.08688e-10
1.09734e-09
1.90033e-09
6.30197e-10
5.26506e-10
4.49099e-10
3.58491e-10
2.56199e-10
1.64083e-10
9.12454e-11
4.44238e-11
2.02224e-11
1.33176e-11
1.84245e-11
3.38009e-11
5.62444e-11
1.14483e-10
1.62689e-10
3.01192e-09
4.02202e-09
5.31033e-09
6.10219e-09
3.63404e-09
5.55444e-10
1.03428e-09
3.5439e-09
4.87425e-10
4.51749e-10
3.79755e-10
3.05978e-10
2.22647e-10
1.45901e-10
8.56081e-11
4.30525e-11
1.89023e-11
9.90261e-12
1.14227e-11
2.05474e-11
4.46264e-11
7.42838e-11
1.31396e-10
3.25392e-09
4.34323e-09
5.58376e-08
1.20691e-07
3.64303e-09
6.83502e-09
2.11921e-08
1.24871e-09
3.97177e-10
3.9796e-10
3.03966e-10
2.40191e-10
1.74479e-10
1.17989e-10
7.22445e-11
3.82417e-11
1.71418e-11
7.7428e-12
7.11173e-12
1.32776e-11
2.51764e-11
5.90841e-11
8.98012e-11
4.58257e-09
4.34992e-09
4.80942e-08
2.31515e-07
3.65596e-09
1.63282e-08
5.06605e-08
3.94869e-10
3.95484e-10
3.37606e-10
2.26065e-10
1.75318e-10
1.27177e-10
8.5538e-11
5.40942e-11
3.04774e-11
1.44245e-11
6.12484e-12
4.30473e-12
7.77949e-12
1.75673e-11
3.22006e-11
6.89417e-11
5.64434e-09
8.25213e-09
8.64748e-09
2.29777e-07
1.84385e-08
4.55616e-08
5.52949e-08
7.26946e-09
4.47514e-10
2.71926e-10
1.56788e-10
1.19804e-10
8.57295e-11
5.5999e-11
3.54834e-11
2.12574e-11
1.09493e-11
4.73934e-12
2.66348e-12
4.14343e-12
8.70773e-12
2.46932e-11
3.83926e-11
1.3248e-08
8.06302e-08
4.43471e-07
2.40536e-07
7.58333e-08
1.12728e-07
4.93157e-08
9.22898e-09
9.1533e-10
2.09572e-10
1.02761e-10
7.77555e-11
5.33596e-11
3.31097e-11
2.02886e-11
1.26031e-11
7.13621e-12
3.3385e-12
1.67598e-12
2.17461e-12
4.75534e-12
1.02583e-11
2.52157e-11
1.3244e-08
1.76951e-07
8.37492e-07
5.28564e-07
1.15746e-07
1.3077e-07
5.55895e-08
1.11966e-08
1.4029e-09
1.77993e-10
6.37018e-11
4.64915e-11
3.09147e-11
1.77988e-11
1.01094e-11
6.22416e-12
3.8758e-12
2.05508e-12
1.0102e-12
1.13769e-12
2.59608e-12
6.41245e-12
1.21466e-11
1.67099e-08
2.53988e-07
8.37492e-07
8.36401e-07
1.39048e-07
1.38941e-07
5.61769e-08
1.44326e-08
2.18656e-09
2.08528e-10
3.78786e-11
2.56731e-11
1.66505e-11
8.79475e-12
4.44916e-12
2.52265e-12
1.64489e-12
1.01425e-12
5.38282e-13
4.61612e-13
9.71322e-13
2.23087e-12
6.65296e-12
1.45538e-08
2.37135e-07
8.37492e-07
8.37408e-07
1.68484e-07
1.05133e-07
4.54673e-08
1.46416e-08
2.73685e-09
2.67323e-10
2.35059e-11
1.26048e-11
8.12118e-12
4.04129e-12
1.78192e-12
8.62378e-13
5.31405e-13
3.7341e-13
2.41153e-13
1.97032e-13
4.07741e-13
1.05016e-12
2.27373e-12
1.18227e-08
1.60945e-07
8.37493e-07
8.37492e-07
1.65517e-07
7.21935e-08
3.22774e-08
1.13292e-08
2.34142e-09
2.60817e-10
1.53948e-11
5.2792e-12
3.4738e-12
1.66939e-12
6.50463e-13
2.46941e-13
1.28784e-13
9.64738e-14
8.08284e-14
7.02516e-14
1.33594e-13
3.30646e-13
8.56705e-13
6.87084e-09
1.23398e-07
8.37487e-07
4.19506e-07
1.2147e-07
5.85008e-08
2.58587e-08
8.12305e-09
1.58376e-09
1.59971e-10
7.40779e-12
1.68727e-12
1.18541e-12
5.79007e-13
2.0921e-13
6.47365e-14
2.43302e-14
1.667e-14
1.76303e-14
2.16404e-14
3.65668e-14
1.12912e-13
2.68275e-13
4.32369e-09
1.14944e-07
6.96795e-07
2.42312e-07
8.52116e-08
4.35767e-08
1.64811e-08
3.89196e-09
5.77748e-10
4.25979e-11
1.36291e-12
3.42009e-13
2.74486e-13
1.42044e-13
5.03212e-14
1.32573e-14
3.39756e-15
1.93667e-15
2.83405e-15
4.98974e-15
1.05861e-14
3.04885e-14
8.24585e-14
4.31649e-09
8.79254e-08
1.53849e-07
7.47093e-08
4.86702e-08
2.07757e-08
4.40894e-09
5.78842e-10
4.28666e-11
1.54228e-12
3.87248e-14
3.32663e-14
3.18029e-14
1.81308e-14
6.65396e-15
1.55271e-15
2.92753e-16
1.44268e-16
3.39809e-16
9.98239e-16
2.7875e-15
8.69707e-15
2.18678e-14
0.0281226
0.0265359
0.00764196
0.00755465
-9.82471e-05
-2.74369e-05
0.00352712
0.0171828
0.344209
0.340563
0.473375
0.672957
0.999035
0.998453
0.99656
0.994579
0.999119
0.999123
0.999123
0.999123
0.999117
0.999041
0.998572
0.999001
0.597163
0.578125
0.571369
0.592019
6.97817e-17
1.03989e-16
2.31651e-20
2.31651e-20
6.45308e-07
1.36488e-07
3.20037e-10
2.30001e-10
3.85649e-06
1.04922e-06
2.53063e-11
2.6348e-09
1.57645e-05
1.37507e-05
5.93707e-06
9.20051e-08
1.81338e-05
1.80665e-05
1.72335e-05
1.05393e-05
1.87585e-05
1.68613e-05
1.70111e-05
1.49784e-05
6.87226e-06
1.14371e-05
1.09111e-05
8.14486e-06
4.51702e-07
4.35742e-07
4.21832e-06
1.28286e-05
3.73438e-07
2.81956e-06
1.31738e-05
1.30188e-05
3.3225e-07
1.50723e-07
7.20631e-06
1.15187e-05
4.94051e-07
1.48742e-07
7.71323e-07
5.26296e-08
3.57122e-07
1.47192e-07
7.36077e-08
5.25169e-08
2.72918e-07
2.78127e-07
1.6433e-07
7.54475e-08
9.55797e-08
1.16011e-07
1.1855e-07
5.19594e-08
1.7337e-08
2.96686e-08
3.01109e-08
1.9801e-08
6.78199e-09
6.63861e-09
1.11631e-08
1.54054e-08
3.14143e-09
4.46308e-09
5.47304e-09
7.86124e-09
1.70062e-09
1.70452e-09
2.35536e-09
2.83739e-09
8.79447e-10
1.07632e-09
1.13937e-09
1.39156e-09
5.5081e-10
5.99355e-10
7.5439e-10
8.27994e-10
3.9017e-10
4.71844e-10
5.2014e-10
6.14034e-10
2.93311e-10
3.40246e-10
4.27801e-10
4.6531e-10
2.23126e-10
2.88571e-10
3.27366e-10
3.96095e-10
1.75438e-10
2.13051e-10
2.76193e-10
3.0348e-10
1.36845e-10
1.74246e-10
1.9847e-10
2.49973e-10
9.57276e-11
1.14618e-10
1.51193e-10
1.60527e-10
6.76598e-11
7.96071e-11
9.12544e-11
1.18615e-10
3.63679e-11
4.51754e-11
5.84841e-11
6.23958e-11
2.0657e-11
2.50601e-11
2.9478e-11
3.74118e-11
9.74894e-12
1.22201e-11
1.49365e-11
1.70685e-11
4.12389e-12
4.88639e-12
5.96006e-12
7.43639e-12
1.38611e-12
1.76117e-12
2.13695e-12
2.55671e-12
4.4057e-13
5.51643e-13
6.96698e-13
8.32494e-13
1.27853e-13
1.56771e-13
1.83995e-13
2.1464e-13
3.12012e-14
3.33049e-14
3.72271e-14
3.97133e-14
0.00369668
0.00368818
0.00641731
0.0731522
0.0871955
0.058863
0.0216048
0.0215986
0.0845299
0.376452
0.469205
0.312086
0.00591284
0.0130478
0.0219332
0.0169606
0.028942
0.0345746
0.0317555
0.0699937
0.0406692
0.0767027
0.0765507
0.0256535
0.0232465
0.0216183
0.0975298
0.622382
0.917844
0.882769
0.740635
0.197587
0.0164991
0.0137757
0.0137782
0.0209113
0.0314942
0.0316318
0.786454
0.571429
0.352539
0.249109
0.165204
0.16775
0.408218
0.949969
0.986107
0.987987
0.911571
0.884924
0.890776
0.59494
0.272821
0.157135
0.0816838
0.05466
0.0424322
0.993521
0.904056
0.680514
0.647517
0.739719
0.979246
0.996402
0.997389
0.997831
0.997837
0.980524
0.913287
0.984984
0.993494
0.935634
0.785716
0.691777
0.747868
0.806266
0.999111
0.985284
0.812058
0.735152
0.893001
0.99755
0.997826
0.99783
0.997836
0.99784
0.997896
0.990568
0.9948
0.994399
0.997783
0.997783
0.997783
0.994009
0.992157
0.99911
0.998913
0.888643
0.731948
0.780209
0.930665
0.989816
0.997828
0.997832
0.997768
0.997897
0.997896
0.997886
0.997668
0.997783
0.997783
0.997783
0.997783
0.992583
0.634038
0.676286
0.727541
0.720717
0.715487
0.663146
0.780984
0.91186
0.962258
0.945197
0.989375
0.996858
0.997181
0.997362
0.997783
0.997783
0.997754
0.986827
0.929473
0.00154617
0.017441
0.0323105
0.0425428
0.056071
0.103846
0.158331
0.222847
0.300755
0.293862
0.353227
0.47682
0.539027
0.554324
0.580346
0.616107
0.569302
0.444788
0.434402
2.58339e-18
1.18434e-28
-5.48555e-12
-1.13677e-10
-3.22206e-27
1.80729e-32
2.95738e-14
1.613e-14
5.77222e-11
1.18196e-10
1.74362e-10
0.000560586
0.00313013
0.00458314
0.000580304
0.00774655
0.0048767
0.00113308
0.00202666
5.44449e-09
2.48498e-08
3.5477e-08
3.36124e-08
2.27322e-08
3.64384e-24
4.17482e-07
5.06903e-13
1.08149e-07
8.72836e-08
5.36417e-08
5.33274e-08
6.45402e-08
-1.49337e-08
8.50575e-23
2.09908e-24
3.59605e-22
7.02448e-18
-5.4618e-08
1.45024e-08
5.36741e-08
6.69304e-08
2.13953e-08
2.14028e-08
3.68634e-05
0.000130399
4.92817e-05
4.07752e-07
7.33519e-07
2.89372e-07
1.53849e-06
1.94134e-05
2.315e-05
2.18593e-05
6.32527e-06
1.01566e-05
7.58841e-05
5.69801e-05
1.17886e-07
4.4798e-08
7.54552e-08
2.14031e-08
1.41174e-05
0.000200002
0.000217207
0.000208496
1.64843e-06
1.51394e-07
1.5234e-07
1.51392e-07
1.39504e-05
0.000109987
0.00011827
0.000103938
0.000100498
0.000116253
0.000114093
1.13558e-06
4.48794e-08
1.22815e-07
2.14378e-08
7.27069e-05
0.000216584
0.000218401
0.000218347
9.48101e-05
3.38518e-06
2.12913e-05
6.61544e-05
1.01673e-05
4.42653e-05
0.000118264
0.000118509
0.000118509
0.000116023
5.97976e-05
8.12749e-06
3.80321e-06
1.23557e-07
1.43444e-05
0.000144648
0.000217816
0.00021698
0.00020915
0.000162958
2.5257e-05
0.000152079
0.000152089
8.57883e-05
1.6162e-05
5.61444e-05
0.000118498
8.99291e-05
2.18939e-05
9.65808e-06
1.08264e-05
9.68446e-06
1.91271e-05
4.91247e-05
0.00018139
0.000169123
1.65356e-05
2.13496e-05
9.99962e-05
0.000113063
9.71175e-05
4.81026e-05
4.62669e-05
1.63097e-05
7.55619e-05
6.47362e-05
5.83616e-06
5.80167e-06
9.68535e-06
5.31105e-06
4.0246e-06
5.37272e-05
0.000109158
0.000138102
3.45424e-06
3.4521e-06
3.44731e-06
3.72068e-06
7.18096e-06
7.22628e-06
1.5037e-05
2.89471e-05
2.89498e-05
2.37366e-05
6.19087e-06
6.19606e-06
4.59311e-06
1.30466e-05
9.07203e-08
1.42834e-06
3.20407e-05
8.42227e-05
4.22962e-05
3.45903e-06
3.45493e-06
3.5315e-06
3.49296e-06
3.49707e-06
8.96802e-06
1.99518e-05
2.19999e-05
1.42238e-05
9.05247e-06
8.61067e-06
7.75557e-06
2.32618e-06
1.3051e-05
8.86009e-08
1.52205e-06
7.47153e-06
1.45617e-05
4.21651e-06
3.46129e-06
3.45941e-06
4.06305e-06
6.65962e-06
6.89468e-06
6.48865e-06
6.4493e-06
6.56688e-06
7.96846e-06
1.58002e-06
9.02818e-06
1.10451e-05
2.34566e-06
6.13466e-06
1.32043e-07
3.23076e-07
3.65019e-06
4.54514e-06
4.1483e-06
4.14416e-06
5.80901e-06
5.58476e-06
4.81185e-06
9.08448e-06
2.24264e-05
3.27897e-05
3.14459e-05
7.77511e-06
1.74415e-06
2.29756e-06
2.11465e-05
5.1124e-06
1.61721e-07
3.0955e-08
3.24309e-08
3.2393e-08
2.05165e-07
9.02571e-06
1.15999e-05
1.19302e-05
1.18903e-05
4.95799e-06
4.11268e-08
1.2301e-05
3.69853e-05
3.70679e-05
3.70929e-05
1.53844e-05
5.66121e-07
2.11383e-05
1.81153e-05
1.39029e-07
2.75732e-08
4.69713e-08
4.68913e-08
4.77461e-08
3.02349e-07
2.31183e-06
5.77523e-06
3.64598e-06
3.82462e-07
3.98747e-08
1.88302e-08
4.19484e-06
3.11974e-05
3.67396e-05
3.06788e-05
6.2371e-07
1.82869e-05
1.90306e-05
2.96976e-07
2.8092e-08
6.24082e-08
6.58291e-08
5.9677e-08
5.9237e-08
2.88319e-08
2.48986e-08
2.48658e-08
5.15025e-08
5.08092e-08
1.97154e-08
1.37073e-08
1.37357e-08
6.7949e-06
6.95621e-06
6.98591e-07
7.58379e-06
1.26437e-05
8.35198e-07
2.64939e-08
3.64946e-08
4.4794e-08
4.95052e-08
4.65926e-08
4.1098e-08
3.44019e-08
2.62108e-08
2.37185e-08
2.80391e-08
3.07457e-08
2.6118e-08
1.70137e-08
1.32073e-08
1.32099e-08
1.32035e-08
3.71805e-06
4.81163e-06
8.46016e-07
1.09521e-08
1.39186e-08
1.82018e-08
2.3385e-08
2.59508e-08
2.72759e-08
2.71623e-08
2.44785e-08
2.26284e-08
2.51322e-08
3.21026e-08
4.05111e-08
4.05613e-08
2.53206e-08
1.42584e-08
1.3199e-08
2.83117e-06
3.80448e-06
4.65289e-07
4.02527e-09
4.80079e-09
6.01259e-09
7.39198e-09
9.04761e-09
1.06756e-08
1.23393e-08
1.37217e-08
1.4999e-08
1.79799e-08
2.59548e-08
4.02347e-08
5.25123e-08
3.36099e-08
1.7353e-08
3.58641e-07
9.15612e-07
3.72594e-07
2.05487e-07
1.61164e-09
1.9176e-09
2.3008e-09
2.75653e-09
3.35832e-09
4.24653e-09
5.50658e-09
7.06057e-09
8.65071e-09
1.12286e-08
1.6995e-08
2.66743e-08
3.66168e-08
2.49134e-08
3.91697e-08
4.53347e-07
2.59996e-07
1.68389e-07
8.65261e-08
9.67719e-10
1.12031e-09
1.34145e-09
1.62074e-09
2.04766e-09
2.60474e-09
3.34106e-09
4.3699e-09
5.91258e-09
8.208e-09
1.18679e-08
1.65954e-08
2.19306e-08
2.19283e-08
4.05812e-08
3.68635e-07
2.18078e-07
8.65316e-08
8.68239e-08
6.75678e-10
8.22615e-10
1.01599e-09
1.26741e-09
1.61674e-09
2.10826e-09
2.77987e-09
3.61651e-09
4.86317e-09
6.76055e-09
9.93178e-09
1.33048e-08
1.69273e-08
3.5009e-08
7.27418e-08
1.98993e-07
1.24928e-07
9.36135e-08
5.50985e-08
5.52546e-10
6.86342e-10
8.7199e-10
1.12032e-09
1.48452e-09
1.9997e-09
2.70051e-09
3.62283e-09
4.77542e-09
6.26398e-09
8.48086e-09
9.92766e-09
1.33547e-08
5.2883e-08
8.98934e-08
8.51103e-08
6.54469e-08
4.47523e-08
4.3934e-08
4.48906e-10
5.83429e-10
7.63279e-10
1.02324e-09
1.4301e-09
2.04553e-09
2.95332e-09
4.15037e-09
5.56679e-09
7.0807e-09
9.2919e-09
9.97332e-09
1.16677e-08
6.34632e-08
7.79527e-08
4.9645e-08
3.43396e-08
2.6401e-08
4.58167e-08
3.74983e-10
4.85807e-10
6.54567e-10
9.21497e-10
1.37181e-09
2.12422e-09
3.45264e-09
5.44503e-09
7.91641e-09
1.03469e-08
1.34038e-08
1.2803e-08
1.13156e-08
3.98052e-08
5.83297e-08
2.73481e-08
2.73777e-08
2.63644e-08
4.83393e-08
2.78284e-10
3.84885e-10
5.33995e-10
7.92944e-10
1.27648e-09
2.15959e-09
3.83706e-09
6.65365e-09
1.05574e-08
1.5554e-08
2.72539e-08
3.14916e-08
1.13302e-08
1.59689e-08
3.75901e-08
3.56966e-08
2.65846e-08
9.95273e-08
4.81026e-08
2.07628e-10
2.79267e-10
4.06675e-10
6.41449e-10
1.11983e-09
2.09951e-09
4.09053e-09
7.79875e-09
1.36779e-08
2.2883e-08
5.72084e-08
1.30405e-07
6.81388e-08
1.42249e-08
1.97453e-08
9.06419e-08
1.51572e-07
1.81713e-07
6.68163e-07
1.33648e-10
1.88561e-10
2.85054e-10
4.80482e-10
9.17661e-10
1.90329e-09
4.08269e-09
8.47405e-09
1.59068e-08
2.83636e-08
8.79556e-08
3.53929e-07
8.64899e-07
3.56503e-07
1.91834e-08
6.70477e-08
2.26066e-07
3.5343e-07
2.62519e-06
8.14841e-11
1.13481e-10
1.78467e-10
3.24841e-10
6.78881e-10
1.55525e-09
3.65176e-09
8.20765e-09
1.67386e-08
3.17027e-08
8.5041e-08
3.15574e-07
3.0711e-06
6.81066e-06
1.46796e-06
6.31026e-08
1.97819e-07
4.04193e-07
2.78919e-06
4.26595e-11
6.17095e-11
9.99872e-11
1.93534e-10
4.43283e-10
1.11538e-09
2.83934e-09
6.8083e-09
1.47704e-08
3.05574e-08
8.09124e-08
3.40844e-07
2.41757e-06
6.81143e-06
6.53678e-06
4.40186e-07
1.69976e-07
3.63586e-07
2.72182e-06
2.03203e-11
2.95395e-11
4.9101e-11
1.00693e-10
2.49893e-10
6.84952e-10
1.88478e-09
4.84071e-09
1.11887e-08
2.41458e-08
5.8004e-08
1.56532e-07
4.63575e-07
3.89032e-06
6.72241e-06
5.19815e-06
1.70052e-07
1.70051e-07
1.3621e-06
8.57753e-12
1.24763e-11
2.09955e-11
4.46527e-11
1.175e-10
3.49628e-10
1.04838e-09
2.92869e-09
7.36398e-09
1.6608e-08
3.55636e-08
8.70845e-08
2.22925e-07
8.55419e-07
5.6331e-06
6.3159e-06
3.11955e-06
5.51027e-07
1.56163e-06
3.13133e-12
4.54344e-12
7.58112e-12
1.59827e-11
4.37071e-11
1.39975e-10
4.60625e-10
1.40686e-09
3.81874e-09
9.31687e-09
2.05021e-08
4.56451e-08
1.00795e-07
2.23156e-07
9.55948e-07
5.8497e-06
5.8391e-06
1.96315e-06
2.25359e-06
9.53417e-13
1.31836e-12
2.22968e-12
4.75968e-12
1.34611e-11
4.68112e-11
1.7523e-10
6.28779e-10
2.0181e-09
5.63578e-09
1.41546e-08
3.14857e-08
7.2019e-08
1.50467e-07
3.3676e-07
1.00567e-06
2.81118e-06
2.12356e-06
1.42464e-06
2.35617e-13
3.18764e-13
4.96619e-13
9.79377e-13
2.61114e-12
9.20181e-12
3.81043e-11
1.60894e-10
6.2218e-10
2.10871e-09
6.33886e-09
1.68682e-08
4.29538e-08
9.68479e-08
1.74139e-07
3.06976e-07
5.3139e-07
5.25388e-07
1.52563e-07
4.13247e-14
5.10557e-14
7.37427e-14
1.33069e-13
3.03463e-13
9.10765e-13
3.59888e-12
1.6682e-11
7.73145e-11
3.08564e-10
9.78496e-10
2.81859e-09
7.42759e-09
2.47721e-08
8.5069e-08
1.38275e-07
1.15686e-07
1.15284e-07
1.04615e-07
)
;

boundaryField
{
    leftWall
    {
        type            zeroGradient;
    }
    rightWall
    {
        type            zeroGradient;
    }
    lowerWall
    {
        type            zeroGradient;
    }
    atmosphere
    {
        type            inletOutlet;
        inletValue      uniform 0;
        value           nonuniform List<scalar> 
46
(
4.31649e-09
8.79254e-08
1.53849e-07
7.47093e-08
4.86702e-08
0
0
0
0
0
0
0
0
0
0
0
0
0
0
9.98239e-16
2.7875e-15
8.69707e-15
2.18678e-14
3.12013e-14
0
0
0
0
0
0
0
0
0
0
0
0
0
0
0
0
0
8.5069e-08
1.38275e-07
1.15686e-07
1.15284e-07
1.04615e-07
)
;
    }
    defaultFaces
    {
        type            empty;
    }
}


// ************************************************************************* //
