/*--------------------------------*- C++ -*----------------------------------*\
| =========                 |                                                 |
| \\      /  F ield         | OpenFOAM: The Open Source CFD Toolbox           |
|  \\    /   O peration     | Version:  2312                                  |
|   \\  /    A nd           | Website:  www.openfoam.com                      |
|    \\/     M anipulation  |                                                 |
\*---------------------------------------------------------------------------*/
FoamFile
{
    version     2.0;
    format      ascii;
    arch        "LSB;label=32;scalar=64";
    class       volScalarField;
    location    "4.8";
    object      alpha.air;
}
// * * * * * * * * * * * * * * * * * * * * * * * * * * * * * * * * * * * * * //

dimensions      [0 0 0 0 0 0 0];

internalField   nonuniform List<scalar> 
2268
(
9.84615e-10
1.00142e-09
9.61003e-10
9.40537e-10
9.51999e-10
9.87899e-10
7.96792e-10
4.63813e-10
2.23213e-10
1.17106e-10
1.05626e-10
1.05235e-10
1.06856e-10
1.09668e-10
1.18822e-10
1.402e-10
1.77062e-10
2.0931e-10
2.1705e-10
2.17126e-10
1.62019e-09
2.177e-07
5.13075e-07
1.29036e-09
1.46906e-09
1.58882e-09
2.16124e-09
3.46539e-09
6.00192e-09
6.36548e-09
4.0132e-09
2.2887e-09
1.22256e-09
7.52826e-10
5.72315e-10
5.34712e-10
5.28096e-10
5.22294e-10
5.23545e-10
6.3577e-10
9.55748e-10
1.24413e-09
1.20227e-09
1.87659e-08
6.57961e-07
7.43048e-07
3.01237e-09
2.81738e-09
3.23215e-09
2.16145e-09
2.1989e-09
1.61711e-08
1.99746e-08
1.81591e-08
1.99077e-08
2.22847e-09
5.10358e-09
2.1327e-09
1.68481e-09
1.51348e-09
1.41532e-09
6.20538e-10
1.49674e-09
3.00428e-09
2.97756e-09
1.27959e-09
3.72285e-08
3.70503e-07
5.65184e-07
2.82161e-09
2.82071e-09
2.19535e-08
4.59238e-06
2.16419e-09
2.16336e-09
2.16419e-09
2.16336e-09
1.93869e-08
5.22584e-07
1.4853e-09
1.48544e-09
1.48868e-09
1.48979e-09
8.64834e-09
8.5431e-08
2.23236e-08
1.01705e-08
1.29291e-09
1.93326e-09
3.29711e-08
3.53068e-08
4.75735e-08
0.000478763
0.000504372
0.000644308
0.000804017
0.000780807
0.000596479
0.000334036
0.000107769
2.2553e-08
5.91246e-06
3.06783e-05
5.60994e-05
3.8508e-05
9.03265e-06
3.72434e-07
2.13532e-06
1.68053e-06
9.83058e-07
8.59973e-09
9.25377e-10
7.45568e-10
3.79915e-10
3.4216e-10
0.00128882
0.00131906
0.00132746
0.00132746
0.00132747
0.00132746
0.00132747
0.00101334
0.000168909
5.87765e-06
9.88188e-05
0.000163156
0.000163156
0.000129499
3.38674e-05
2.14155e-06
2.35985e-05
0.000137497
0.000156094
5.87562e-05
1.25092e-05
5.29688e-09
5.93014e-08
0.000347693
0.000344174
0.000449374
0.000948716
0.00125776
0.0012251
0.00101748
0.000800315
0.000543698
4.81408e-05
4.83657e-05
0.00016112
0.00015666
0.000140338
8.2696e-05
1.59568e-05
1.62836e-05
0.000351889
0.00497759
0.0073945
0.00653704
0.00479294
0.00276077
0.000256384
0.000256572
0.00025633
0.000256308
0.000252076
0.000242532
0.000217332
0.000197819
0.000210506
0.000151027
7.15561e-05
4.04717e-05
3.3604e-05
2.67833e-05
2.5488e-05
5.23837e-05
0.000161463
0.00269057
0.00837148
0.0117991
0.0118168
0.0116184
0.00958481
0.000234489
0.000792414
0.00614623
0.00802702
0.00815171
0.00600875
0.00412245
0.00223295
0.00220557
0.00220437
0.00219979
0.00219776
0.00227164
0.00233534
0.002428
0.0035369
0.00479683
0.00553964
0.0055397
0.000234271
0.000234069
0.000456384
0.00301073
0.00310758
0.00592383
0.0077756
0.00618749
0.0037506
0.00245679
0.00221054
0.00219653
0.00219435
0.00219483
0.00308735
0.00793171
0.010721
0.00806389
0.00722036
0.00289893
0.00418806
0.00616779
0.00618534
0.00413777
0.00432934
0.0116214
0.0144677
0.0109274
0.00412686
0.00315103
0.00389677
0.00564848
0.00963793
0.0203394
0.026434
0.0195646
0.0127953
0.0161072
0.0107074
0.012785
0.0233724
0.0233721
0.023373
0.0155591
0.0143867
0.0195251
0.0196991
0.018981
0.0193041
0.0217825
0.0247707
0.0254249
0.0278587
0.0280932
0.0228626
0.0338198
0.0194666
0.00825079
0.008488
0.0229997
0.0194695
0.0141926
0.0412235
0.0414277
0.0132732
0.00818466
0.00794104
0.00796439
0.00794104
0.0151711
0.0279584
0.0280932
0.0282001
0.0594173
0.059752
0.0345358
0.00505493
0.00478772
0.00485718
0.00191696
0.00191698
0.0204056
0.0414163
0.0100215
0.00852974
0.0115702
0.0177608
0.0124952
0.0102948
0.024092
0.0279913
0.0127852
0.0810038
0.082434
0.0441361
0.00644866
0.00214208
0.00198264
0.00191689
0.00191693
0.00614844
0.0166424
0.00850531
0.0130613
0.0435726
0.093897
0.0499113
0.0160298
0.00561992
0.0134047
0.00278131
0.045252
0.0823003
0.0453023
0.00611385
0.00504385
0.00212437
0.00191683
0.00192282
0.00208242
0.00437666
0.0032083
0.00389141
0.0865523
0.093891
0.0938968
0.023756
0.00279938
0.00278955
0.00279226
0.0245396
0.0823176
0.0450602
0.0100281
0.000554641
0.000283224
0.000241025
0.000198391
0.000197567
0.000197495
0.000197428
0.000204683
0.000222725
0.000206414
0.000161083
0.000165535
0.000108312
2.55343e-05
4.68875e-05
0.000109195
0.000119203
0.000118797
0.00207611
0.00599159
0.00609156
0.00624168
0.0398141
0.0167287
0.00390543
0.00310857
0.00688962
0.0158196
0.0129441
0.00856684
0.00372905
0.000464552
0.000254237
0.000247316
0.000253135
0.000254674
0.000254584
4.7561e-05
4.99994e-05
0.00191713
0.00207121
0.00212435
0.00360324
0.0105148
0.0132635
0.0398141
0.0363315
0.00835015
0.0068109
0.0424343
0.0753203
0.0753213
0.0573631
0.0496119
0.0479637
0.0473362
0.0382612
0.0141365
0.0117023
0.0375127
0.0591693
0.0595129
0.041279
0.0262496
0.0301879
0.0396304
0.0401642
0.040167
0.0398141
0.0152152
0.0138804
0.0142125
0.0736475
0.0753213
0.0753212
0.0753213
0.0753203
0.0731441
0.0330289
0.0300409
0.0615097
0.0671106
0.0671332
0.0671106
0.038805
0.0186429
0.0321734
0.0399789
0.0399231
0.0334923
0.0135365
0.0178342
0.00515178
0.0375596
0.0477775
0.0481441
0.0727249
0.0753222
0.0279957
0.0130384
0.0140297
0.00395808
0.00852061
0.0186759
0.0167562
0.00760913
0.00268896
0.000184361
0.000811411
0.0127671
0.0215546
0.00683706
0.000226689
0.000144569
0.00113936
0.00514833
0.0290449
0.0254294
0.00772199
0.0390296
0.0401309
4.71562e-05
0.000219395
0.000272169
0.000238924
0.000249581
0.000273286
0.000239959
9.42894e-05
2.76393e-05
-1.73758e-13
-9.54955e-07
0.000552514
0.0123036
0.0199678
0.0112307
0.00171646
0.00113779
0.00211713
0.00143255
0.000811733
0.000249789
0.000790048
0.00122528
3.56089e-05
3.72803e-05
2.46126e-05
1.90926e-05
3.78681e-08
3.11139e-08
3.0177e-08
0.00211777
0.0571782
0.12855
0.236314
0.393184
0.581173
0.633652
0.584091
0.46487
0.00108245
0.000510873
0.000152283
0.000254174
0.000174543
0.000155657
0.000142562
-7.22426e-23
2.56129e-15
9.64573e-24
2.56129e-15
0.087972
0.278967
0.503617
0.694048
0.816486
0.896284
0.951903
0.980651
0.985861
0.992889
0.996312
0.998636
0.000410796
0.0001473
3.89896e-05
5.46306e-05
3.88935e-05
3.86008e-05
0.000197252
0.000135689
0.0184458
0.173447
0.491035
0.781977
0.923083
0.989394
0.997352
0.998206
0.999245
0.999951
0.999963
1
1
0.999999
0.999873
5.0528e-05
3.89958e-05
3.89051e-05
3.32011e-05
3.34286e-05
3.22286e-05
3.24955e-05
0.0588763
0.312476
0.726525
0.973632
0.988664
0.99931
0.999986
0.999728
0.99998
0.999981
0.999991
0.999999
0.999999
1
0.999998
0.999995
0.214803
0.206077
0.190119
0.178855
0.1848
0.226927
0.37451
0.659129
0.931527
0.995106
0.995199
0.997771
0.999893
0.999999
0.999999
0.999986
0.999943
0.99994
0.999977
0.999996
1
0.999989
0.999968
0.972214
0.966286
0.95261
0.933124
0.930695
0.947856
0.983216
0.992409
0.99272
0.994623
0.999767
0.999996
0.999999
0.999999
0.999999
0.999944
0.999935
0.999935
0.999957
0.999989
0.999993
0.999964
0.99996
0.999867
0.999961
0.99998
0.99985
0.999771
0.998567
0.996804
0.997025
0.998402
0.999277
0.999958
0.999998
0.999999
0.999998
0.999945
0.999936
0.99994
0.999948
0.999976
0.999994
0.999979
0.99996
0.99996
1
1
1
1
1
0.999999
0.999998
0.999997
0.999997
0.999997
0.999998
0.999998
0.999987
0.99994
0.999939
0.999965
0.99999
0.99998
0.999988
0.999999
0.999996
0.999968
0.999964
0.999999
0.999999
0.999999
1
0.999999
0.999998
0.999998
0.999998
0.999998
0.999998
0.999998
0.999995
0.999957
0.999956
0.999972
0.999999
0.999999
0.999998
0.999999
1
0.999999
0.999996
0.999997
0.999999
0.999999
0.999999
0.999999
0.999999
0.999999
0.999999
0.999999
0.999999
0.999998
0.999997
0.999992
0.99999
0.999998
1
1
1
1
1
1
1
1
0.999999
0.999999
1
1
1
1
1
0.999999
0.999999
0.999999
0.999998
0.999998
0.999998
1
1
1
1
1
1
1
1
1
0.999999
0.999999
1
1
1
1
1
1
1
1
1
1
1
1
1
1
1
1
1
1
1
1
1
1
0.999999
1
1
1
1
1
1
1
1
1
1
1
1
1
1
1
1
1
1
1
1
1
1
0.999999
1
1
1
1
1
1
1
1
1
1
1
1
1
1
1
1
1
1
1
1
1
1
1
1
1
1
1
1
1
1
1
1
1
1
1
1
1
1
1
1
1
1
1
1
1
1
1
1
1
1
1
1
1
1
1
1
1
1
1
1
1
1
1
1
1
1
1
1
1
1
1
1
1
1
1
1
1
1
1
1
1
1
1
1
1
1
1
1
1
1
1
1
1
1
1
1
1
1
1
1
1
1
1
1
1
1
1
1
1
1
1
1
1
1
1
1
1
1
1
1
1
1
1
1
1
1
1
1
1
1
1
1
1
1
1
1
1
1
1
1
1
1
1
1
1
1
1
1
1
1
1
1
1
1
1
1
1
1
1
1
1
1
1
1
1
1
1
1
1
1
1
1
1
1
1
1
1
1
1
1
1
1
1
1
1
1
1
1
1
1
1
1
1
1
1
1
1
1
1
1
1
1
1
1
1
1
1
1
1
1
1
1
1
1
1
1
1
1
1
1
1
1
1
1
1
1
1
1
1
1
1
1
1
1
1
1
1
1
1
1
1
1
1
1
1
1
1
1
1
1
1
1
1
1
1
1
1
1
0.999999
1
1
1
1
1
1
1
1
1
1
1
1
1
1
1
1
1
1
1
1
1
0.999999
0.999999
1
1
1
1
1
1
1
1
1
1
1
1
1
1
1
1
1
1
1
1
0.999999
0.999999
0.999999
1
1
1
1
1
1
1
1
1
1
1
1
1
1
1
1
1
1
1
1
0.999999
0.999999
1
1
1
1
1
1
1
1
1
1
1
1
1
1
1
1
1
1
1
1
0.999999
0.999999
1
1
1
1
1
1
1
1
1
1
1
1
1
1
1
1
1
1
1
1
1
0.999999
0.999999
1
1
1
1
1
1
1
1
1
1
1
1
1
1
1
1
1
1
1
1
1
0.999999
0.999999
1
1
1
1
1
1
1
1
1
1
1
1
1
1
1
1
1
1
1
1
1
0.999999
0.999999
1
1
1
1
1
1
1
1
1
1
1
1
1
1
1
1
1
1
1
1
1
0.999999
0.999999
1
1
1
1
1
1
1
1
1
1
1
1
1
1
1
1
1
1
1
1
1
0.999999
1
1
1
1
1
1
1
1
1
1
1
1
1
1
1
1
1
1
1
1
1
1
0.999999
1
1
1
1
1
1
1
1
1
1
1
1
1
1
1
1
1
1
1
1
1
1
1
1
1
1
1
1
1
1
1
1
1
1
1
1
1
1
1
1
1
1
1
0.00815129
0.00645661
0.0034133
0.00329911
0.022517
0.0362892
0.0363614
0.0363219
0.0258827
0.00243666
0.00326243
0.00106637
3.30836e-05
3.27202e-05
3.19223e-05
7.2766e-05
0.000138887
0.00011837
0.000460443
0.00065834
0.0007752
0.000330538
0.00038456
0.000307118
0.402603
0.419224
0.425651
0.404996
0.999511
0.99873
0.997585
0.99751
0.99984
0.99995
0.999998
0.999999
0.999996
0.999998
1
1
0.999971
0.999971
0.999988
1
0.999961
0.999961
0.999964
0.99998
0.99996
0.999963
0.999964
0.999971
0.999976
0.999974
0.999978
0.99997
0.999999
0.999999
0.999982
0.999941
0.999999
0.999994
0.999945
0.999942
0.999999
0.999999
0.999974
0.999946
0.999999
0.999999
0.999997
1
0.999999
0.999999
1
1
0.999999
0.999999
1
1
1
1
1
1
1
1
1
1
1
1
1
1
1
1
1
1
1
1
1
1
1
1
1
1
1
1
1
1
1
1
1
1
1
1
1
1
1
1
1
1
1
1
1
1
1
1
1
1
1
1
1
1
1
1
1
1
1
1
1
1
1
1
1
1
1
1
1
1
1
1
1
1
1
1
1
1
1
1
1
1
1
1
1
1
1
1
1
1
0.00974596
0.00512189
0.00221141
0.00191688
0.00721592
0.0041088
0.00320427
0.00320383
0.00320396
0.0748898
0.0938998
0.0938934
0.0418985
0.00988184
0.00317337
0.00823336
0.0406011
0.0527451
0.0417183
0.0121827
0.0025829
0.00219662
0.0576
0.0734829
0.0295914
0.0286897
0.0431711
0.0285819
0.0433249
0.0938937
0.093902
0.0938919
0.049585
0.0352263
0.0373435
0.0288139
0.0216017
0.0413137
0.000273809
0.0325438
0.0952428
0.192956
0.191126
0.156857
0.139312
0.0196078
0.00288541
0.000938547
0.0690536
0.0938944
0.0615497
0.0207604
0.0144112
0.0122305
0.00675463
0.0175365
0.0413907
7.1943e-05
0.0867681
0.192949
0.192969
0.14331
0.00438996
0.000448006
0.000561848
0.000554682
0.000821049
0.017627
0.0835315
0.0109272
0.000559487
0.000539244
0.00167491
0.00222489
0.00324755
0.00672391
0.000799199
0.0142807
0.167551
0.192694
0.0399069
0.000447737
0.000448253
0.000763342
0.00122066
0.00147586
0.00178062
0.00936133
0.00512957
0.00494138
0.000424908
8.84653e-05
8.70775e-05
2.8734e-06
2.8734e-06
0.000688994
0.00102593
0.103315
0.196901
0.136518
0.00942975
0.000448003
0.000933749
0.00162823
0.00108733
0.00112153
0.00156002
0.00158871
0.00224306
0.00161913
0.000752568
0.000296585
9.02562e-05
2.8734e-06
0.364346
0.32281
0.266651
0.251789
0.250014
0.295412
0.191814
0.0817725
0.0366229
0.0520349
0.00732708
0.000415655
0.000410696
0.000413469
0.000409078
0.000547661
0.00052364
0.00780194
0.0614537
0.99636
0.981068
0.967355
0.957216
0.94365
0.895734
0.838741
0.769926
0.692821
0.702001
0.642081
0.518277
0.454898
0.437969
0.412882
0.37899
0.422954
0.544949
0.556517
0.999936
1
0.999975
0.999954
0.999938
0.999893
0.999098
0.997655
0.997849
0.998995
0.999065
0.998411
0.995433
0.993274
0.995866
0.985538
0.987373
0.991565
0.990241
1
1
1
1
0.999999
0.999998
0.999993
0.999991
1
1
0.999992
0.999999
0.999999
0.999942
0.999465
0.998301
0.998708
0.999302
0.999028
1
1
1
0.999999
0.999998
0.999955
0.99986
0.999949
0.999993
0.999992
0.999997
0.999998
0.999979
0.999965
0.999966
0.999966
0.999965
0.999916
0.999915
1
1
1
0.999999
0.999974
0.999778
0.999762
0.999777
0.999995
0.999994
1
1
0.999986
0.999884
0.999873
0.999886
0.999894
0.999877
0.999877
0.999996
1
1
0.999999
0.999906
0.999762
0.999762
0.999762
0.999902
0.999995
0.999978
0.999931
0.999989
0.999951
0.999872
0.999872
0.999874
0.999884
0.999937
0.99995
0.999974
0.999999
0.999978
0.999834
0.999766
0.999765
0.999762
0.99982
0.999967
0.99983
0.99983
0.999906
0.999984
0.999942
0.999873
0.9999
0.999978
0.99999
0.999942
0.999943
0.999957
0.999922
0.9998
0.999818
0.999971
0.999947
0.999867
0.999865
0.999882
0.999943
0.999953
0.999983
0.999922
0.999911
0.999963
0.999988
0.99999
0.99995
0.999974
0.999912
0.999861
0.999855
0.999988
0.999974
0.999965
0.999988
0.999988
0.999987
0.99998
0.999967
0.99996
0.999954
0.999953
0.999951
0.99997
0.999987
0.999996
0.999998
0.999959
0.999903
0.999951
0.999992
0.999961
0.999951
0.999953
0.999979
0.999965
0.999949
0.99995
0.99995
0.99995
0.999949
0.999949
0.999972
0.999987
1
0.999997
0.999992
0.999985
0.999994
0.999994
0.999988
0.999956
0.99995
0.99995
0.999949
0.99995
0.999963
0.999983
0.99998
0.999955
0.999956
0.999994
0.999993
0.999999
0.999998
0.999994
0.999994
0.999994
0.999993
0.999991
0.999993
0.999994
0.999976
0.99996
0.999958
0.999967
0.999991
0.999997
0.999998
0.999974
0.999993
0.999997
1
1
1
0.999999
0.999989
0.999986
0.999985
0.999986
0.999994
0.999999
0.999987
0.999963
0.999962
0.999962
0.999984
0.999999
0.999978
0.999981
0.999998
1
1
1
1
1
0.999997
0.999994
0.999996
0.999999
1
1
0.999996
0.999968
0.999962
0.999968
0.999999
0.999982
0.999981
0.999999
1
1
1
1
1
1
1
1
1
1
1
1
1
0.999993
0.999993
0.999999
0.999992
0.999987
0.999999
1
1
1
1
1
1
1
1
1
1
1
1
1
1
1
1
0.999996
0.999995
0.999999
1
1
1
1
1
1
1
1
1
1
1
1
1
1
1
1
0.999997
0.999996
0.999999
1
1
1
1
1
1
1
1
1
1
1
1
1
1
1
1
0.999999
1
1
1
1
1
1
1
1
1
1
1
1
1
1
1
1
1
1
1
1
1
1
1
1
1
1
1
1
1
1
1
1
1
1
1
1
1
1
1
1
1
1
1
1
1
1
1
1
1
1
1
1
1
1
1
1
1
1
1
1
1
1
1
1
1
1
1
1
1
1
1
1
1
1
1
1
1
1
1
1
1
1
1
1
1
1
1
1
1
1
1
1
1
1
1
1
1
1
1
1
1
1
1
1
1
1
1
1
1
1
1
1
1
1
1
1
1
1
1
1
1
1
1
1
1
1
1
1
1
1
1
1
1
1
1
1
1
1
1
1
1
1
1
1
1
1
1
1
1
1
1
1
1
0.999999
1
1
1
1
1
1
1
1
1
1
1
1
0.999999
1
1
1
1
1
0.999997
1
1
1
1
1
1
1
1
1
1
1
1
0.999997
0.999993
0.999998
1
1
1
0.999997
1
1
1
1
1
1
1
1
1
1
1
1
0.999998
0.999993
0.999993
0.999999
1
1
0.999997
1
1
1
1
1
1
1
1
1
1
1
1
1
0.999996
0.999993
0.999995
1
1
0.999998
1
1
1
1
1
1
1
1
1
1
1
1
1
0.999999
0.999994
0.999994
0.999997
0.999999
0.999998
1
1
1
1
1
1
1
1
1
1
1
1
1
1
0.999999
0.999994
0.999994
0.999998
0.999998
1
1
1
1
1
1
1
1
1
1
1
1
1
1
1
0.999999
0.999997
0.999998
0.999999
1
1
1
1
1
1
1
1
1
1
1
1
1
1
1
1
0.999999
0.999999
1
1
1
1
1
1
1
1
1
1
1
1
1
1
1
1
1
1
1
1
)
;

boundaryField
{
    leftWall
    {
        type            alphaContactAngle;
        thetaProperties 
6
(
(galistan air) 90 0 0 0
(oil galistan) 90 0 0 0
(water oil) 90 0 0 0
(water air) 90 0 0 0
(oil air) 90 0 0 0
(water galistan) 90 0 0 0
);
        value           nonuniform List<scalar> 
50
(
9.84615e-10
1.29036e-09
3.01237e-09
2.82161e-09
0.000478763
0.00128882
0.000347693
0.000256384
0.0100281
0.0398141
0.0398141
0.0398141
0.0178342
0.00113936
0.00113779
0.00108245
0.000410796
5.0528e-05
0.214803
0.972214
0.999867
1
0.999999
0.999999
0.999999
1
1
1
1
1
1
1
1
1
1
1
1
1
1
1
1
1
1
1
1
1
1
1
1
1
)
;
    }
    rightWall
    {
        type            alphaContactAngle;
        thetaProperties 
6
(
(galistan air) 90 0 0 0
(oil galistan) 90 0 0 0
(water oil) 90 0 0 0
(water air) 90 0 0 0
(oil air) 90 0 0 0
(water galistan) 90 0 0 0
);
        value           nonuniform List<scalar> 
50
(
0.0055397
0.00722036
0.0161072
0.0194666
0.0345358
0.0441361
0.0453023
0.0450602
0.0417183
0.0413137
0.0413907
0.00672391
2.8734e-06
2.8734e-06
0.0614537
0.556517
0.990241
0.999028
0.999915
0.999877
0.999937
0.99999
0.99999
0.999987
0.999987
0.999993
0.999997
0.999998
0.999999
0.999999
0.999999
0.999999
1
1
1
1
1
1
1
1
0.999999
0.999997
0.999997
0.999997
0.999998
0.999998
0.999998
0.999999
1
1
)
;
    }
    lowerWall
    {
        type            alphaContactAngle;
        thetaProperties 
6
(
(galistan air) 90 0 0 0
(oil galistan) 90 0 0 0
(water oil) 90 0 0 0
(water air) 90 0 0 0
(oil air) 90 0 0 0
(water galistan) 90 0 0 0
);
        value           nonuniform List<scalar> 
62
(
9.84615e-10
1.00142e-09
9.61003e-10
9.40537e-10
9.51999e-10
9.87899e-10
7.96792e-10
4.63813e-10
2.23213e-10
1.17106e-10
1.05626e-10
1.05235e-10
1.06856e-10
1.09668e-10
1.18822e-10
1.402e-10
1.77062e-10
2.0931e-10
2.1705e-10
2.17126e-10
1.62019e-09
2.177e-07
5.13075e-07
5.13075e-07
7.43048e-07
5.65184e-07
4.75735e-08
3.4216e-10
5.93014e-08
0.00276077
0.00958481
0.00815129
0.00645661
0.0034133
0.00329911
0.000234489
0.000234271
0.00289893
0.0107074
0.00825079
0.00505493
0.00644866
0.00611385
0.000234489
0.000792414
0.00614623
0.00802702
0.00815171
0.00600875
0.00412245
0.00223295
0.00220557
0.00220437
0.00219979
0.00219776
0.00227164
0.00233534
0.002428
0.0035369
0.00479683
0.00553964
0.0055397
)
;
    }
    atmosphere
    {
        type            inletOutlet;
        inletValue      uniform 1;
        value           nonuniform List<scalar> 
46
(
1
1
1
1
1
1
1
1
1
1
1
1
1
1
1
1
1
1
1
1
1
1
1
1
1
1
1
1
1
1
1
1
1
1
1
1
1
1
1
1
1
1
1
1
1
1
)
;
    }
    defaultFaces
    {
        type            empty;
    }
}


// ************************************************************************* //
