/*--------------------------------*- C++ -*----------------------------------*\
| =========                 |                                                 |
| \\      /  F ield         | OpenFOAM: The Open Source CFD Toolbox           |
|  \\    /   O peration     | Version:  2312                                  |
|   \\  /    A nd           | Website:  www.openfoam.com                      |
|    \\/     M anipulation  |                                                 |
\*---------------------------------------------------------------------------*/
FoamFile
{
    version     2.0;
    format      ascii;
    arch        "LSB;label=32;scalar=64";
    class       volScalarField;
    location    "4.8";
    object      p_rgh;
}
// * * * * * * * * * * * * * * * * * * * * * * * * * * * * * * * * * * * * * //

dimensions      [1 -1 -2 0 0 0 0];

internalField   nonuniform List<scalar> 
2268
(
5074.51
5083.12
5099.55
5123.34
5153.01
5187.33
5225.76
5269.27
5318.97
5376.59
5443.95
5522.5
5612.55
5712.96
5820.92
5932.96
6046.12
6157.64
6263.56
6358.64
6437.88
6495.86
6526.87
5072.3
5080.65
5097.79
5122.03
5151.97
5186.34
5224.63
5267.83
5317.11
5374.31
5441.38
5519.86
5610.19
5711.24
5820
5932.74
6046.54
6158.87
6265.84
6361.96
6442.12
6500.73
6532.18
5068.82
5077.84
5094.59
5119.36
5149.85
5184.4
5222.32
5264.94
5313.41
5369.75
5436.18
5514.53
5605.38
5707.75
5818.13
5932.24
6047.23
6161.2
6270.33
6368.46
6450.45
6510.62
6543.27
5063.2
5073.32
5091.52
5115.75
5147.06
5181.9
5219.08
5260.77
5307.9
5362.87
5428.2
5506.26
5597.85
5702.31
5815.32
5931.48
6048.16
6164.51
6276.99
6378.16
6462.77
6525.31
6559.93
4844.12
4868.37
4914.6
4973.24
5043.65
5119.17
5189.34
5254.58
5300.25
5353.05
5416.49
5494.7
5587.39
5694.7
5811.57
5930.48
6049.16
6168.61
6285.48
6390.73
6478.64
6544.39
6581.92
2174.3
2222.2
2320.92
2457.49
2613.31
2774.64
2950.24
3160.18
3435.52
3745.59
4105.71
4512.45
4914.15
5334.72
5698.16
5927.08
6049.51
6171.47
6293.28
6400.98
6494.65
6567.62
6609.37
1253.38
1253.4
1252.5
1251.01
1249.19
1246.8
1243.68
1241.73
1248.94
1270.81
1308.83
1425.41
1712.96
2133.45
2728.73
3508.38
4321.31
5033.29
5682.71
6011.49
6202.52
6462.95
6633.02
1252.63
1252.79
1252.25
1251.36
1249.85
1247.37
1243.68
1239.01
1233.46
1227.38
1220.25
1210.28
1198.31
1186.71
1175.24
1171.91
1364.27
1742.16
2293.71
3180.25
4017.89
4516.26
4806.16
3041.2
3059.22
3091.03
3124.67
3157.56
3192.48
3223.04
3247.53
3256.28
3236.37
3184.73
3107.78
3014.7
2917.98
2826.65
2736.15
2672.57
2643.47
2629.09
3024.91
3045.54
3084.92
3124.38
3161.17
3198.55
3229.01
3255.58
3267.72
3248.17
3194.92
3106.36
2995.16
2877.27
2778.77
2669.4
2593.11
2558.06
2532.74
2626.59
2638.69
2710.52
2811.38
2887.26
2928.2
2932.12
2936.02
2925.78
2850.71
2687.44
2526.86
2378.55
2213.14
2064.16
1839.07
1657.25
1581.73
1605.23
1354.3
1341.15
1368.49
1390.61
1457.45
1617.22
1796.64
1950.65
2036.16
2053.37
2008.71
1821.49
1630.07
1494.78
1237.51
1099.98
1125.06
1135.37
1107.36
1028.62
1065.53
1063.56
1065.58
1068.9
1061.2
1077.24
1087.51
1097.8
1116.16
1130.29
1113.38
1084.33
1028.03
1041.29
1113.27
1135.68
1146.25
1116.22
1050.85
1066.06
1068.98
1070.54
1072.37
1068.28
1060.47
1092.06
1117.6
1126.84
1140.31
1128.09
1099.56
1038.13
1036.02
1081.61
1138.51
1169.41
1133.95
1054.97
1067.3
1070.27
1064.09
1065.89
1069.97
1065.46
1074.75
1099.44
1161.63
1162.18
1141.34
1110.19
1065.13
1036.56
1074.6
1159.15
1169.49
1157.3
1058.88
1066.79
1070.38
1056.41
1061.48
1065.28
1063.9
1068.55
1088.93
1139.7
1148.92
1172.4
1123.24
1111.59
1082.89
1121.79
1143.38
1171.76
1170.38
1246.52
1251.19
1251.04
1250.62
1249.6
1246.92
1243.13
1237.97
1231.72
1224.64
1216.75
1207.43
1196.62
1184.82
1172.72
1156.42
1135.19
1122.11
1110.12
1091.21
1068.08
1071.22
1100.91
1223.67
1233.18
1242.15
1251.66
1254.62
1246.6
1239.69
1232.71
1228.24
1222.48
1214.25
1205.01
1194.71
1183.07
1170.76
1158.1
1145.13
1132.25
1116.44
1101.39
1089.77
1070.42
1058.68
1000.12
996.995
1022.19
1058.65
1092.21
1123.6
1145.99
1150.7
1155.58
1171.37
1178.36
1179.21
1181.9
1168.07
1149.53
1132.45
1140.36
1137.08
1110.04
1084.44
1050.03
999.198
916.683
863.113
874.867
889.398
882.6
868.436
895.333
925.343
920.486
895.431
886.552
908.318
927.549
937.167
944.926
943.519
933.914
890.273
843.735
808.13
787.305
730.451
670.958
662.518
871.895
887.908
860.722
844.722
831.799
814.985
810.001
822.489
811.171
793.651
781.389
769.029
751.331
733.471
722.276
717.106
716.74
748.614
740.927
683.666
666.816
667.732
666.109
881.827
881.401
856.769
854.321
858.132
838.106
833.318
832.948
814.593
796.492
778.499
759.578
741.088
724.282
709.38
696.316
684.706
676.92
683.647
707.245
705.899
665.847
657.229
883.746
880.592
879.139
875.568
869.987
862.18
852.579
838.928
820.114
799.93
778.53
757.828
738.249
718.686
700.363
650.998
600.77
532.256
453.996
367.792
332.646
357.424
383.817
888.863
888.232
887.279
883.996
879.658
872.356
860.508
846.332
827.94
807.198
787.121
703.139
551.535
375.101
228.357
136.399
84.2937
49.9427
40.6937
57.3682
60.8729
38.7639
19.5172
898.567
896.327
895.503
895.697
895.265
887.053
872.822
858.335
828.152
691.126
424.188
189.021
68.7645
14.3146
5.25047
3.40154
2.20182
1.34966
0.932318
0.263958
0.248521
0.247316
0.452046
913.528
909.595
905.551
911.061
924.922
918.564
902.65
833.525
597.26
245.845
39.1162
19.9583
1.8252
0.614051
0.865361
0.405731
0.347277
0.315535
0.259862
0.248623
0.234635
0.233764
0.243103
738.605
747.132
762.563
777.566
783.965
746.027
608.461
345.309
92.2615
28.1661
11.2932
4.43889
0.5879
0.385354
0.300424
0.253004
0.279737
0.296679
0.266242
0.235069
0.222955
0.241274
0.285894
36.7438
43.1649
60.1918
81.896
87.093
78.3613
43.2116
25.0781
17.0173
15.0445
3.54658
0.168891
0.203064
0.234224
0.231331
0.2745
0.285411
0.301047
0.283371
0.230525
0.222722
0.289607
0.298881
-0.00183289
-0.196761
0.284437
3.89388
6.03738
5.21042
6.30215
5.80754
2.94003
1.58536
0.69746
0.049225
0.101724
0.158294
0.231791
0.252021
0.274399
0.277666
0.24509
0.204621
0.257513
0.28567
0.28449
-0.266414
-0.267427
-0.2784
-0.29638
-0.295164
-0.27578
-0.311067
-0.323352
-0.313032
-0.274749
-0.160864
-0.0322098
0.0580488
0.162099
0.194502
0.18081
0.176121
0.207153
0.18318
0.17597
0.210416
0.256242
0.237248
-0.240187
-0.241246
-0.243797
-0.255144
-0.254739
-0.231348
-0.271307
-0.268426
-0.242948
-0.194216
-0.123857
-0.0542067
0.0567255
0.108132
0.121562
0.112153
0.124816
0.13651
0.140033
0.143541
0.168483
0.166677
0.148899
-0.215934
-0.217101
-0.20999
-0.214616
-0.221699
-0.221132
-0.219993
-0.216134
-0.193376
-0.15129
-0.102711
-0.0420719
0.00852981
0.0371039
0.0648956
0.0861899
0.100677
0.110556
0.117429
0.122385
0.126816
0.132776
0.128975
-0.194355
-0.195649
-0.193805
-0.19507
-0.197916
-0.194288
-0.183939
-0.175378
-0.154116
-0.120757
-0.0823407
-0.0437422
-0.0104431
0.0208527
0.0467491
0.0665164
0.081285
0.0921288
0.0997675
0.104694
0.108722
0.116749
0.115863
-0.175792
-0.176244
-0.175588
-0.174378
-0.171957
-0.167378
-0.158619
-0.144766
-0.126456
-0.101817
-0.073026
-0.0429908
-0.0142441
0.0114368
0.0334193
0.0513142
0.0653464
0.0760368
0.0839611
0.0895588
0.0935552
0.103683
0.107904
-0.157725
-0.157561
-0.156571
-0.154501
-0.150773
-0.144882
-0.135999
-0.123396
-0.106967
-0.0866855
-0.0635561
-0.0395758
-0.0164283
0.00481439
0.0235629
0.039465
0.0524319
0.0627052
0.0705964
0.0763721
0.0802489
0.0883859
0.095335
-0.141062
-0.140592
-0.139235
-0.136719
-0.132597
-0.126403
-0.117773
-0.106356
-0.0919628
-0.0749463
-0.0561313
-0.0366767
-0.0176465
0.000148946
0.0161916
0.0301967
0.0419836
0.0516109
0.0592266
0.0649932
0.0690454
0.0716699
0.0792425
-0.125964
-0.12536
-0.1238
-0.121083
-0.116864
-0.110838
-0.102783
-0.0925272
-0.0800702
-0.0657453
-0.0501652
-0.0340736
-0.0181994
-0.00315124
0.0106439
0.0229246
0.0335259
0.042402
0.0496051
0.0552244
0.0593593
0.0621065
0.0647009
-0.112395
-0.111745
-0.110117
-0.107376
-0.103275
-0.0976148
-0.090259
-0.0811444
-0.0703826
-0.0582363
-0.0451565
-0.031665
-0.0182818
-0.00546175
0.00644576
0.0172042
0.0266798
0.0347774
0.0414953
0.046874
0.0509815
0.0538951
0.0559025
-0.100242
-0.0995988
-0.097999
-0.0953561
-0.0914988
-0.0862946
-0.0796719
-0.0716481
-0.0623067
-0.0519288
-0.0408383
-0.0294143
-0.0180374
-0.00705111
0.00326371
0.0127036
0.0211368
0.0284735
0.0346771
0.0397569
0.0437541
0.0467265
0.0488837
-0.0893855
-0.0887773
-0.0872573
-0.0847842
-0.0812287
-0.0765118
-0.0705991
-0.0635325
-0.0554293
-0.046515
-0.0370439
-0.0272983
-0.017563
-0.0081012
0.000863268
0.00915416
0.0166452
0.0232616
0.0289482
0.0336954
0.0375229
0.040474
0.0426414
-0.0797118
-0.0791454
-0.0777324
-0.0754608
-0.072225
-0.0679882
-0.0627388
-0.0565343
-0.0494927
-0.0417973
-0.0336616
-0.0253011
-0.0169269
-0.00874401
-0.000933979
0.00635466
0.0130092
0.0189521
0.0241346
0.0285323
0.0321514
0.0350166
0.0371842
-0.0710832
-0.0706108
-0.0693156
-0.0672171
-0.0642909
-0.0605108
-0.0558704
-0.0504318
-0.0443067
-0.0376437
-0.0306166
-0.0234123
-0.0161788
-0.0090755
-0.00225657
0.00415541
0.0100622
0.0153911
0.0200902
0.0241333
0.0275196
0.0302579
0.0323802
-0.0632612
-0.0628477
-0.0617063
-0.0598593
-0.0572625
-0.0539079
-0.0498202
-0.0450592
-0.0397257
-0.0339463
-0.0278584
-0.0216046
-0.0153585
-0.00916599
-0.00320294
0.00243911
0.00767708
0.0124454
0.0166977
0.0203818
0.0235263
0.0261097
0.0281516
-0.0562322
-0.0558931
-0.0548976
-0.053278
-0.0509955
-0.0480402
-0.0444515
-0.0402914
-0.0356443
-0.0306214
-0.0253359
-0.0199003
-0.0144185
-0.00905803
-0.00384894
0.0011135
0.0057524
0.0100074
0.0138329
0.0171952
0.0200878
0.0224991
0.0244316
-0.0499313
-0.0496668
-0.0488066
-0.0473928
-0.045387
-0.0428036
-0.0396591
-0.0360316
-0.0319812
-0.0276096
-0.0230138
-0.0182879
-0.0135256
-0.00882704
-0.00426212
0.000103763
0.00420735
0.00799547
0.0114271
0.0144726
0.0171165
0.0193503
0.02118
-0.0442919
-0.0440952
-0.043357
-0.0421277
-0.0403472
-0.0378417
-0.0351971
-0.0322043
-0.0286724
-0.0248627
-0.0208613
-0.0167467
-0.0125971
-0.00848857
-0.0044865
-0.000647745
0.00297601
0.00633949
0.00940598
0.0121482
0.0145486
0.0165972
0.018293
-0.0392411
-0.0391087
-0.0384782
-0.037329
-0.0343233
-0.0312173
-0.0308901
-0.0287489
-0.0256673
-0.022341
-0.0188526
-0.0152671
-0.0116491
-0.00805991
-0.00455493
-0.00118646
0.00200544
0.00498145
0.00770921
0.010164
0.0123281
0.0141907
0.0157486
-0.0347248
-0.0346538
-0.0340067
-0.0321415
-0.0280354
-0.0267467
-0.0277526
-0.0256274
-0.022917
-0.0200086
-0.0169647
-0.0138403
-0.0106884
-0.00755871
-0.00449802
-0.00154942
0.00125219
0.00387357
0.00628686
0.00846985
0.010406
0.0120846
0.0135013
-0.0306745
-0.0306525
-0.0298145
-0.0256519
-0.0241557
-0.0243652
-0.0248165
-0.0227654
-0.0203769
-0.0178309
-0.0151751
-0.0124564
-0.00971707
-0.00699703
-0.00433405
-0.00176344
0.000681212
0.00297605
0.0050965
0.00702287
0.00874003
0.0102376
0.0115114
-0.0270404
-0.0270361
-0.0255253
-0.0211476
-0.0207047
-0.023586
-0.0219262
-0.0200969
-0.0180058
-0.0157752
-0.0134624
-0.011105
-0.00873537
-0.00638431
-0.00408192
-0.00185746
0.000262248
0.0022554
0.00410237
0.00578588
0.0072927
0.00861339
0.00974353
-0.023627
-0.0235221
-0.0207048
-0.0178878
-0.0202389
-0.0206103
-0.0192415
-0.0176007
-0.0157597
-0.0138107
-0.0118072
-0.00977687
-0.00774274
-0.0057277
-0.00375533
-0.00184846
-2.90703e-05
0.00168329
0.00327346
0.00472672
0.00603152
0.00717941
0.00816691
-0.0204424
-0.0201264
-0.0167568
-0.0162944
-0.0186104
-0.017849
-0.0166435
-0.0152072
-0.0135963
-0.0119099
-0.0101931
-0.00846448
-0.00673929
-0.00503404
-0.00336643
-0.00175423
-0.000214968
0.00123494
0.00258295
0.0038172
0.00492774
0.00590758
0.00675342
-0.0173387
-0.0168848
-0.013721
-0.0142065
-0.0159922
-0.0151438
-0.0141099
-0.0128597
-0.0114815
-0.0100521
-0.00860842
-0.00716348
-0.00572685
-0.00431018
-0.00292662
-0.00158999
-0.000313826
0.000888904
0.00200697
0.00303208
0.00395568
0.00477172
0.00547797
-0.0143367
-0.0139221
-0.0116039
-0.011832
-0.0132369
-0.0125402
-0.0116107
-0.0105402
-0.00939733
-0.0082246
-0.00704676
-0.00587293
-0.00470919
-0.00356396
-0.00244724
-0.0013699
-0.000342398
0.000625429
0.00152435
0.00234877
0.00309208
0.00374912
0.00431761
-0.0111856
-0.0110676
-0.00929896
-0.00909247
-0.0103573
-0.0098722
-0.00908837
-0.00823085
-0.00733508
-0.00642106
-0.00550528
-0.00459366
-0.00369074
-0.00280332
-0.00193946
-0.00110789
-0.000316942
0.000426052
0.00111525
0.00174646
0.0023156
0.00281797
0.00325145
-0.00802269
-0.00803627
-0.00612792
-0.00708473
-0.00742445
-0.0070539
-0.00653158
-0.00593594
-0.00529501
-0.00463982
-0.00398243
-0.00332589
-0.00267474
-0.00203501
-0.00141345
-0.000817016
-0.000252397
0.000274902
0.000760984
0.00120604
0.00160642
0.00195918
0.00226051
-0.00482431
-0.00492928
-0.00330552
-0.00439559
-0.00440785
-0.0042072
-0.00396416
-0.00364382
-0.00327003
-0.00287595
-0.00247398
-0.00206797
-0.00166282
-0.00126433
-0.000878092
-0.000509434
-0.000163583
0.000154072
0.000437522
0.000707486
0.000944736
0.0011537
0.00133603
-0.0015839
-0.0017214
-0.0015802
-0.00150862
-0.00145428
-0.00140916
-0.00141018
-0.0013504
-0.00124597
-0.00111566
-0.000969206
-0.000813137
-0.000653097
-0.000494319
-0.000340945
-0.000196214
-6.28779e-05
5.77566e-05
0.00016684
0.000242322
0.000311424
0.000372685
0.000418638
1319.87
1337.99
1153.7
1084.39
1047.6
1037.74
1043.36
1044.46
928.232
946.083
905.946
872.98
672.713
679.387
702.297
726.161
666.827
666.015
660.371
657.858
652.8
653.99
656.612
656.242
404.196
407.9
407.604
421.234
7.58817
15.2224
22.5462
19.1926
2.85274
1.29727
0.281101
0.238566
0.236639
0.234317
0.228463
0.223854
0.280275
0.282799
0.242672
0.218919
0.294209
0.292119
0.277285
0.23535
0.280618
0.259167
0.255324
0.237091
0.213672
0.217471
0.210133
0.269262
0.146119
0.145426
0.226579
0.417564
0.128023
0.14405
0.38973
0.404751
0.112597
0.10837
0.22637
0.385845
0.102573
0.0986436
0.109628
0.0900882
0.0954483
0.0890554
0.0848533
0.083846
0.0823971
0.0823909
0.0768815
0.0746678
0.0673304
0.068638
0.0687484
0.0686498
0.056944
0.0583694
0.0595229
0.0594475
0.0498215
0.0502517
0.0507403
0.0509542
0.0436892
0.0442189
0.0446105
0.0448697
0.0382948
0.0388729
0.0393275
0.0396545
0.0335147
0.0341228
0.0346137
0.0349878
0.029277
0.0298983
0.0304098
0.0308108
0.0255456
0.0261524
0.0266636
0.0270794
0.0222312
0.022821
0.0233263
0.0237471
0.0192895
0.0198541
0.0203435
0.0207582
0.0166785
0.0172101
0.0176763
0.0180769
0.0143573
0.0148504
0.0152865
0.0156657
0.0122882
0.0127383
0.0131397
0.0134917
0.0104381
0.0108425
0.0112052
0.0115258
0.00877706
0.00913363
0.00945523
0.00974103
0.00727844
0.00758606
0.00786434
0.0081132
0.00591742
0.00617536
0.00640959
0.00661979
0.00467179
0.0048799
0.00506921
0.00524006
0.00351956
0.00367703
0.00382255
0.00395436
0.0024396
0.00253528
0.00264987
0.00274691
0.00145974
0.00154575
0.00158222
0.00162054
0.000439561
0.000447832
0.000467774
0.00048525
1063.24
1067.13
1070.94
1056.06
1058.16
1064.52
1070.31
1068.76
1084.45
1084.12
1055.79
1105.23
1122.98
1127.68
1136.07
1140.03
1143.37
1166.3
1152.37
1062.9
1068.69
1060.01
1051.36
1045.29
1058.55
1054.04
1087.75
1037.13
935.939
925.252
976.229
1096.72
1122.02
1136.64
1155.79
1174.71
1146.89
1140.49
842.23
897.261
967.712
935.539
937.062
953.669
950.084
836.31
819.508
830.583
897.329
908.065
876.172
1033.82
1171.26
1199.65
1164.12
1148.81
1145.54
740.024
733.48
748.555
766.778
726.563
734.233
718.676
712.794
714.583
716.904
722.397
712.501
759.489
788.311
840.596
908.008
912.546
884.346
906.658
657.441
655.798
660.577
658.895
683.039
675.86
689.984
701.318
703.905
704.18
706.519
706.979
710.578
719.634
735.318
737.203
739.132
794.323
826.455
655.19
656.592
605.094
595.976
639.823
701.549
683.681
686.117
697.521
711.152
707.772
711.512
713.259
714.197
720.978
732.877
739.085
743.388
824.091
436.845
459.741
502.16
528.381
535.213
513.779
577.112
638.888
671.695
710.495
753.089
729.106
722.133
721.319
722.834
727.228
730.36
781.38
808.851
12.2259
17.8376
27.4109
35.6225
46.3579
84.2943
128.354
178.47
235.185
289.239
354.582
445.589
491.496
506.601
508.765
500.335
523.406
488.231
480.754
0.333676
0.235286
0.264507
0.299908
0.3893
1.85763
5.5309
9.03679
15.2835
18.9711
20.3186
22.7787
32.3507
49.0231
61.1199
90.4938
123.663
143.979
162.283
0.219217
0.212322
0.207695
0.205052
0.200069
0.189084
0.180547
0.352025
0.107378
0.100407
0.117576
0.111043
0.130906
1.42612
10.0226
21.5548
21.3571
16.1143
22.4784
0.214267
0.207027
0.200407
0.201931
0.200632
0.236671
0.343081
0.17624
0.118214
0.110045
0.0958481
0.0861475
0.127753
0.28505
0.173542
0.486781
0.380931
0.0911769
0.545222
0.19849
0.190952
0.182229
0.188696
0.288268
0.542639
0.536264
0.459042
0.109201
0.102619
0.0867019
0.0790099
0.0839468
0.173287
0.143192
0.120311
0.0883966
0.137096
0.118758
0.197088
0.179627
0.166668
0.163122
0.371922
0.573508
0.568407
0.551735
0.227091
0.0908694
0.112544
0.185819
0.0760431
0.0946443
0.157827
0.14054
0.129695
0.108245
0.0709234
0.395254
0.325465
0.167819
0.191398
0.421567
0.601905
0.584923
0.538862
0.428439
0.137326
0.365148
0.364616
0.210364
0.0484933
0.0792558
0.153005
0.119029
0.0188417
0.00344239
0.425549
0.41602
0.312777
0.297397
0.492086
0.523107
0.15543
0.172672
0.303265
0.300506
0.254434
0.138968
0.111881
0.0472812
0.10887
0.146139
0.0967394
0.0512102
0.00687964
0.397289
0.272143
0.32112
0.360291
0.446387
0.182641
0.127922
0.140055
0.0777891
0.0752154
0.0719083
0.0756717
0.083924
0.0948328
0.111763
0.159815
0.206568
0.174162
0.0157705
0.125585
0.100095
0.154314
0.261806
0.309527
0.123242
0.153784
0.174547
0.16247
0.124459
0.174147
0.197222
0.180318
0.171517
0.192182
0.215481
0.232058
0.177943
0.0204321
0.0909658
0.0939122
0.0984008
0.106265
0.126777
0.127721
0.0795776
0.158455
0.166088
0.163915
0.188882
0.212179
0.194102
0.131186
0.137059
0.152098
0.139087
0.132774
0.0438512
0.0811209
0.0873654
0.112233
0.105245
0.0901399
0.11031
0.0904592
0.0786301
0.0595629
0.0936562
0.110377
0.0996308
0.0695546
0.0583536
0.0488228
0.00909953
0.0482177
0.0682259
0.10144
0.0721332
0.0690596
0.0646266
0.0706302
0.0949198
0.0959098
0.0877428
0.0825328
0.0638523
0.0474824
0.0496368
0.0818822
0.0772244
0.0724963
0.0362508
0.0113017
0.0421751
0.0385275
0.0609861
0.0641434
0.0613689
0.0577418
0.0535077
0.0502654
0.051275
0.0542501
0.0440188
0.0311246
0.0258227
0.0283049
0.0344374
0.0738156
0.0740346
0.0619472
0.0127814
0.0390384
0.0416422
0.0288934
0.0570957
0.0552563
0.0526034
0.0491773
0.0450608
0.0405513
0.0364067
0.0325439
0.0288667
0.0251932
0.0216561
0.0185554
0.0159138
0.0255539
0.0246459
0.0138705
0.0254996
0.0337027
0.0198072
0.0507909
0.0497447
0.0477932
0.0451432
0.0419304
0.038353
0.0347021
0.0311404
0.0276879
0.0243312
0.0211442
0.0183117
0.0159368
0.0141901
0.0136031
0.0139629
0.0203118
0.022439
0.0182252
0.0450728
0.0445393
0.0431471
0.0410899
0.0385332
0.03563
0.0325445
0.0294012
0.0262776
0.0232256
0.0203484
0.0178076
0.015812
0.0145644
0.013892
0.0136994
0.0184938
0.0210258
0.0172682
0.0399924
0.0397045
0.0387358
0.0371728
0.0351482
0.0327759
0.0301735
0.0274435
0.0246689
0.0219367
0.0193626
0.0170672
0.0152199
0.0138846
0.0133013
0.0136796
0.0150699
0.0154892
0.0151196
0.0354139
0.0353572
0.0347028
0.0335253
0.031916
0.0299671
0.0277711
0.0254157
0.0229784
0.0205365
0.0181884
0.0160608
0.0143012
0.0130413
0.0124553
0.0131717
0.0132648
0.0147276
0.0140946
0.0313038
0.031425
0.0310191
0.0301453
0.0288723
0.0272737
0.0254254
0.0234031
0.0212801
0.0191297
0.0170397
0.0151228
0.0135371
0.0124243
0.0118837
0.0124102
0.0124634
0.0134761
0.0135421
0.0276156
0.0278675
0.0276536
0.0270201
0.0260205
0.0247143
0.0231653
0.0214395
0.0196045
0.0177296
0.0158974
0.0142067
0.0128149
0.0118946
0.0114012
0.0115376
0.0125243
0.0132129
0.0126935
0.0243011
0.024646
0.0245776
0.0241339
0.0233569
0.0222956
0.021004
0.019541
0.0179669
0.016344
0.0147534
0.0132814
0.0120788
0.0113967
0.0109392
0.0109745
0.0146442
0.0135613
0.0120226
0.0213235
0.0217274
0.0217656
0.0214694
0.0208739
0.0200186
0.0189489
0.0177191
0.0163823
0.0149837
0.0136211
0.0123655
0.0113353
0.0108416
0.0104712
0.0126702
0.0142095
0.0130605
0.0114099
0.0186358
0.0190751
0.0191919
0.0190115
0.0185637
0.017882
0.0170016
0.0159827
0.0148751
0.0136623
0.0125255
0.0114653
0.0106192
0.0101951
0.0100793
0.013146
0.0137126
0.011594
0.0106962
0.0162037
0.0166574
0.0168289
0.016739
0.0164114
0.015875
0.015164
0.014324
0.0134001
0.0124306
0.0115089
0.0106533
0.00995081
0.00960171
0.00970762
0.012009
0.012092
0.0108209
0.010012
0.0139983
0.0144484
0.0146541
0.0146326
0.0144035
0.0139911
0.0134261
0.0127483
0.0120028
0.01124
0.0105632
0.0100464
0.00941637
0.00908724
0.00916541
0.00930409
0.00981853
0.0095846
0.0109286
0.0119923
0.0124242
0.012647
0.0126754
0.0125254
0.0122175
0.0117785
0.0112437
0.0106564
0.0100686
0.00962284
0.00972589
0.0105511
0.00943305
0.00883301
0.00873809
0.00870742
0.00900192
0.0154035
0.0101609
0.0105625
0.0107883
0.0108505
0.0107624
0.0105409
0.0102083
0.00979531
0.00934161
0.00889524
0.00856996
0.00872032
0.0150059
0.0239164
0.0129178
0.0105295
0.00891422
0.00822247
0.0176571
0.0084814
0.00884297
0.00905946
0.00914144
0.00909969
0.00894764
0.00870316
0.00839103
0.00804424
0.00770606
0.00747161
0.00777815
0.0125725
0.0236928
0.0245867
0.0141378
0.0134774
0.00731151
0.0204075
0.00693282
0.00724634
0.00744319
0.00753251
0.00752296
0.007425
0.00725219
0.00702316
0.00676292
0.00650394
0.00630295
0.0062717
0.00674468
0.0152974
0.0248902
0.0249962
0.0152164
0.00988581
0.0205247
0.00549549
0.00575462
0.00592306
0.0060087
0.00601851
0.00596053
0.00584479
0.00568442
0.00549682
0.00530353
0.00513052
0.00504027
0.00515691
0.00656855
0.0201397
0.0248986
0.0213263
0.0160633
0.0194663
0.00415166
0.00435149
0.00448409
0.00455624
0.00457357
0.00454241
0.00447021
0.00436583
0.00423995
0.00410541
0.0039757
0.00387449
0.00383891
0.00395529
0.00568592
0.0202115
0.0251768
0.0189777
0.0170053
0.00288642
0.00302236
0.00311297
0.0031632
0.0031776
0.00316134
0.00312027
0.00306063
0.00298901
0.00291246
0.00283936
0.00277737
0.002757
0.00278694
0.00315816
0.00484804
0.0114656
0.0128216
0.00636074
0.00168541
0.00175112
0.00179458
0.00181556
0.00181808
0.00180653
0.00178561
0.0017597
0.00173245
0.00170655
0.00168462
0.0016717
0.00169093
0.00179013
0.00181815
0.00201144
0.0027027
0.00258406
0.00143363
0.00050698
0.000508281
0.00049815
0.000481484
0.000463946
0.000448786
0.000439215
0.000438019
0.000447235
0.000467269
0.000495509
0.000525778
0.000548476
0.000570662
0.000592456
0.00059654
0.00047881
0.000432922
0.000350152
)
;

boundaryField
{
    leftWall
    {
        type            fixedFluxPressure;
        gradient        uniform 0;
        value           nonuniform List<scalar> 
50
(
5074.51
5072.3
5068.82
5063.2
4844.12
2174.3
1253.38
1252.63
1246.52
1223.67
1000.12
863.113
871.895
881.827
883.746
888.863
898.567
913.528
738.605
36.7438
-0.00183289
-0.266414
-0.240187
-0.215934
-0.194355
-0.175792
-0.157725
-0.141062
-0.125964
-0.112395
-0.100242
-0.0893855
-0.0797118
-0.0710832
-0.0632612
-0.0562322
-0.0499313
-0.0442919
-0.0392411
-0.0347248
-0.0306745
-0.0270404
-0.023627
-0.0204424
-0.0173387
-0.0143367
-0.0111856
-0.00802269
-0.00482431
-0.0015839
)
;
    }
    rightWall
    {
        type            fixedFluxPressure;
        gradient        uniform 0;
        value           nonuniform List<scalar> 
50
(
2629.09
2532.74
1605.23
1107.36
1116.22
1133.95
1157.3
1170.38
1152.37
1140.49
1145.54
906.658
826.455
824.091
808.851
480.754
162.283
22.4784
0.545222
0.118758
0.0709234
0.00344239
0.00687964
0.0157705
0.0204321
0.0438512
0.10144
0.0609861
0.0288934
0.0198072
0.0182252
0.0172682
0.0151196
0.0140946
0.0135421
0.0126935
0.0120226
0.0114099
0.0106962
0.010012
0.0109286
0.0154035
0.0176571
0.0204075
0.0205247
0.0194663
0.0170053
0.00636074
0.00143363
0.000350152
)
;
    }
    lowerWall
    {
        type            fixedFluxPressure;
        gradient        uniform 0;
        value           nonuniform List<scalar> 
62
(
5074.51
5083.12
5099.55
5123.34
5153.01
5187.33
5225.76
5269.27
5318.97
5376.59
5443.95
5522.5
5612.55
5712.96
5820.92
5932.96
6046.12
6157.64
6263.56
6358.64
6437.88
6495.86
6526.87
6526.87
6532.18
6543.27
6559.93
6581.92
6609.37
6633.02
4806.16
1319.87
1337.99
1153.7
1084.39
3041.2
3024.91
2626.59
1354.3
1028.62
1050.85
1054.97
1058.88
3041.2
3059.22
3091.03
3124.67
3157.56
3192.48
3223.04
3247.53
3256.28
3236.37
3184.73
3107.78
3014.7
2917.98
2826.65
2736.15
2672.57
2643.47
2629.09
)
;
    }
    atmosphere
    {
        type            totalPressure;
        rho             rho;
        psi             none;
        gamma           1;
        p0              uniform 0;
        value           nonuniform List<scalar> 
46
(
0
0
0
0
0
-4.81062e-05
-0.000166201
-0.000228081
-0.000250167
-0.000246543
-0.000224796
-0.000191978
-0.000154006
-0.000115388
-7.90868e-05
-4.73677e-05
-2.20151e-05
-5.32707e-06
0
0
0
0
0
0
-1.3831e-06
-1.09259e-05
-2.68894e-05
-5.23468e-05
-0.000103061
-0.000153514
-0.000197084
-0.000230562
-0.000252379
-0.000261416
-0.000256529
-0.000236656
-0.000201474
-0.000152662
-9.56358e-05
-4.05383e-05
-3.65662e-06
0
0
0
0
0
)
;
    }
    defaultFaces
    {
        type            empty;
    }
}


// ************************************************************************* //
