/*--------------------------------*- C++ -*----------------------------------*\
| =========                 |                                                 |
| \\      /  F ield         | OpenFOAM: The Open Source CFD Toolbox           |
|  \\    /   O peration     | Version:  2312                                  |
|   \\  /    A nd           | Website:  www.openfoam.com                      |
|    \\/     M anipulation  |                                                 |
\*---------------------------------------------------------------------------*/
FoamFile
{
    version     2.0;
    format      ascii;
    arch        "LSB;label=32;scalar=64";
    class       surfaceScalarField;
    location    "4.8";
    object      phi;
}
// * * * * * * * * * * * * * * * * * * * * * * * * * * * * * * * * * * * * * //

dimensions      [0 3 -1 0 0 0 0];

oriented        oriented;

internalField   nonuniform List<scalar> 
4432
(
4.15531e-07
-4.15523e-07
4.32998e-07
-1.74589e-08
3.98025e-07
3.49806e-08
3.24276e-07
7.37589e-08
1.9333e-07
1.30957e-07
-1.24667e-08
2.05813e-07
-3.1073e-07
2.98282e-07
-6.8551e-07
3.74803e-07
-1.11683e-06
4.31346e-07
-1.57917e-06
4.62362e-07
-2.03495e-06
4.558e-07
-2.47966e-06
4.44724e-07
-2.88526e-06
4.05611e-07
-3.24188e-06
3.56621e-07
-3.54937e-06
3.07486e-07
-3.79029e-06
2.40904e-07
-3.91168e-06
1.21362e-07
-3.84321e-06
-6.85078e-08
-3.54396e-06
-2.99299e-07
-3.09393e-06
-4.50074e-07
-2.42005e-06
-6.73917e-07
-1.4855e-06
-9.34584e-07
-1.48551e-06
-8.77682e-08
-3.27744e-07
-9.98192e-08
-5.39786e-09
-1.26762e-07
6.19352e-08
-1.77989e-07
1.24997e-07
-2.79872e-07
2.32854e-07
-4.65369e-07
3.9133e-07
-7.34548e-07
5.67486e-07
-1.08595e-06
7.26229e-07
-1.49363e-06
8.39056e-07
-1.92793e-06
8.96686e-07
-2.37478e-06
9.02667e-07
-2.79082e-06
8.6078e-07
-3.17469e-06
7.89474e-07
-3.51358e-06
6.95494e-07
-3.79734e-06
5.9122e-07
-4.00602e-06
4.49559e-07
-4.10901e-06
2.24313e-07
-4.02596e-06
-1.51638e-07
-3.70728e-06
-6.1809e-07
-3.21053e-06
-9.46942e-07
-2.47914e-06
-1.40543e-06
-1.42869e-06
-1.98518e-06
-2.91437e-06
-2.18775e-07
-1.08957e-07
-2.46177e-07
2.20161e-08
-2.84647e-07
1.00415e-07
-3.51798e-07
1.92156e-07
-4.7486e-07
3.55926e-07
-6.72918e-07
5.89397e-07
-9.60553e-07
8.55129e-07
-1.32387e-06
1.08955e-06
-1.73945e-06
1.25464e-06
-2.20322e-06
1.36044e-06
-2.6574e-06
1.35684e-06
-3.08124e-06
1.2846e-06
-3.46764e-06
1.17585e-06
-3.79933e-06
1.02714e-06
-4.07254e-06
8.64405e-07
-4.28464e-06
6.61627e-07
-4.39285e-06
3.32488e-07
-4.28499e-06
-2.59544e-07
-3.88942e-06
-1.0137e-06
-3.34374e-06
-1.49268e-06
-2.56013e-06
-2.1891e-06
-1.38845e-06
-3.15693e-06
-4.30281e-06
-1.30994e-07
2.20555e-08
-1.5151e-07
4.25494e-08
-1.64366e-07
1.13287e-07
-2.41141e-07
2.68946e-07
-3.92243e-07
5.07041e-07
-6.11296e-07
8.08463e-07
-9.21857e-07
1.1657e-06
-1.31669e-06
1.48439e-06
-1.78369e-06
1.72164e-06
-2.2942e-06
1.87096e-06
-2.81076e-06
1.8734e-06
-3.29561e-06
1.76946e-06
-3.73261e-06
1.61286e-06
-4.09497e-06
1.38952e-06
-4.37632e-06
1.14577e-06
-4.58077e-06
8.66117e-07
-4.69444e-06
4.46166e-07
-4.57535e-06
-3.78682e-07
-4.0859e-06
-1.50323e-06
-3.48388e-06
-2.09478e-06
-2.66571e-06
-3.00733e-06
-1.38139e-06
-4.44136e-06
-5.68431e-06
1.04345e-07
-8.22754e-08
2.00089e-07
-5.31824e-08
2.82687e-07
3.06974e-08
2.77511e-07
2.74127e-07
1.48216e-07
6.36338e-07
-9.55795e-08
1.05226e-06
-4.24959e-07
1.49508e-06
-8.83685e-07
1.94311e-06
-1.46232e-06
2.30027e-06
-2.13457e-06
2.5432e-06
-2.7822e-06
2.52103e-06
-3.35823e-06
2.34549e-06
-3.89238e-06
2.14702e-06
-4.33724e-06
1.83439e-06
-4.69655e-06
1.5051e-06
-4.98739e-06
1.15695e-06
-5.18569e-06
6.44467e-07
-5.03254e-06
-5.31855e-07
-4.38916e-06
-2.14662e-06
-3.70372e-06
-2.78022e-06
-2.86818e-06
-3.84288e-06
-1.48939e-06
-5.82014e-06
-7.17367e-06
2.58141e-07
-3.40297e-07
5.24526e-07
-3.19469e-07
7.10714e-07
-1.55408e-07
8.40841e-07
1.44067e-07
8.88019e-07
5.89214e-07
8.04343e-07
1.13597e-06
5.92171e-07
1.70727e-06
2.23793e-07
2.31149e-06
-2.24211e-07
2.74827e-06
-7.12318e-07
3.03131e-06
-1.33631e-06
3.14503e-06
-2.09072e-06
3.09994e-06
-2.7137e-06
2.77005e-06
-3.43194e-06
2.55269e-06
-4.29651e-06
2.36972e-06
-5.1582e-06
2.01871e-06
-5.73714e-06
1.22344e-06
-5.75204e-06
-5.16963e-07
-4.96426e-06
-2.93442e-06
-4.08965e-06
-3.65485e-06
-3.14825e-06
-4.78424e-06
-1.7256e-06
-7.24282e-06
-8.89931e-06
9.64676e-07
-1.30481e-06
2.26197e-06
-1.61658e-06
3.21173e-06
-1.10501e-06
4.26479e-06
-9.08851e-07
5.59835e-06
-7.44229e-07
6.94294e-06
-2.08523e-07
7.92078e-06
7.29498e-07
8.17389e-06
2.05843e-06
7.40648e-06
3.51572e-06
5.4875e-06
4.95031e-06
1.71364e-06
6.9189e-06
-2.55263e-06
7.36624e-06
-4.47049e-06
4.68793e-06
-4.97738e-06
3.0596e-06
-4.97864e-06
2.37104e-06
-5.17346e-06
2.21357e-06
-5.29856e-06
1.34854e-06
-5.31903e-06
-4.96524e-07
-5.31718e-06
-2.93628e-06
-4.50044e-06
-4.47156e-06
-3.01362e-06
-6.27108e-06
-1.61911e-06
-8.63732e-06
-1.05184e-05
7.93113e-07
-2.09779e-06
2.0246e-06
-2.84794e-06
3.04837e-06
-2.12869e-06
4.13375e-06
-1.99416e-06
5.33821e-06
-1.94863e-06
6.57211e-06
-1.44238e-06
7.60497e-06
-3.03317e-07
8.22036e-06
1.44309e-06
8.19605e-06
3.54006e-06
7.45463e-06
5.69176e-06
6.77922e-06
7.5943e-06
6.58323e-06
7.56217e-06
6.04906e-06
5.22203e-06
5.21373e-06
3.89487e-06
2.99249e-06
4.59222e-06
-2.30503e-06
7.51102e-06
-7.34669e-06
6.39017e-06
-8.41101e-06
5.67802e-07
-7.23729e-06
-4.10996e-06
-4.46474e-06
-7.24413e-06
-2.00775e-06
-8.72806e-06
-5.85871e-07
-1.00592e-05
-1.11043e-05
2.18673e-07
-2.18691e-07
2.22032e-06
-2.00165e-06
3.92024e-06
-1.69993e-06
4.77863e-06
-8.58388e-07
5.08057e-06
-3.01943e-07
5.13297e-06
-5.2393e-08
5.06844e-06
6.45236e-08
5.08336e-06
-1.4921e-08
4.99479e-06
8.85678e-08
4.66625e-06
3.2854e-07
4.22584e-06
4.40413e-07
3.79461e-06
4.31223e-07
3.07365e-06
7.20951e-07
2.35083e-06
7.22801e-07
1.61106e-06
7.39776e-07
6.20553e-07
9.90507e-07
-2.0622e-08
6.41176e-07
-8.85288e-08
6.79006e-08
-8.85301e-08
1.94589e-06
-2.16461e-06
3.19914e-06
-3.25491e-06
4.38571e-06
-2.88652e-06
5.26671e-06
-1.7394e-06
5.73007e-06
-7.65317e-07
5.78867e-06
-1.11001e-07
5.69904e-06
1.54134e-07
5.75845e-06
-7.43346e-08
5.64387e-06
2.03133e-07
5.18881e-06
7.8359e-07
4.36717e-06
1.26205e-06
3.54047e-06
1.25791e-06
2.68054e-06
1.58087e-06
1.88941e-06
1.51391e-06
9.48267e-07
1.6809e-06
-1.77047e-07
2.11584e-06
-7.14084e-07
1.17821e-06
-5.81757e-07
-6.44465e-08
-6.70318e-07
3.08671e-06
-5.25131e-06
4.0616e-06
-4.22979e-06
4.40084e-06
-3.22574e-06
4.69433e-06
-2.03287e-06
4.79897e-06
-8.69942e-07
4.93033e-06
-2.42347e-07
5.19774e-06
-1.1327e-07
5.81418e-06
-6.90768e-07
6.43966e-06
-4.22341e-07
7.09381e-06
1.29439e-07
7.23094e-06
1.12492e-06
5.84149e-06
2.64737e-06
4.18826e-06
3.23409e-06
2.61025e-06
3.09191e-06
1.69448e-09
4.28945e-06
-1.81525e-06
3.93279e-06
-1.52887e-06
8.9182e-07
-5.14206e-07
-1.07914e-06
-1.18453e-06
2.02753e-06
-7.27906e-06
3.75996e-06
-5.96235e-06
3.6169e-06
-3.08278e-06
2.77195e-06
-1.18802e-06
2.42055e-06
-5.18627e-07
3.1015e-06
-9.23367e-07
4.75083e-06
-1.76269e-06
5.19298e-06
-1.13299e-06
6.13475e-06
-1.36417e-06
8.67463e-06
-2.41051e-06
1.16729e-05
-1.87343e-06
1.32135e-05
1.10676e-06
1.37997e-05
2.64778e-06
1.01077e-05
6.78377e-06
-1.78922e-06
1.61863e-05
-7.06983e-06
9.21327e-06
-1.70694e-06
-4.47115e-06
3.32874e-06
-6.1149e-06
2.1441e-06
-3.25012e-06
-4.02892e-06
-1.41763e-06
-7.79482e-06
-1.1303e-06
-3.37006e-06
3.419e-07
-2.66017e-06
2.12606e-06
-2.30274e-06
5.85002e-07
6.17716e-07
-1.70499e-06
5.27328e-07
-3.19632e-06
3.58366e-07
-1.16721e-06
-3.39328e-06
4.23907e-06
-7.81679e-06
9.96503e-06
-7.59938e-06
1.46674e-05
-3.59558e-06
1.48495e-05
2.46561e-06
7.11494e-06
1.45184e-05
-3.85254e-07
2.36864e-05
-1.19689e-06
1.00249e-05
1.42424e-06
-7.09229e-06
3.80872e-06
-8.49939e-06
5.95287e-06
-2.06483e-06
-1.96422e-06
-1.02717e-06
-8.83255e-06
9.88214e-07
-5.38553e-06
3.42462e-06
-5.09665e-06
5.16324e-06
-4.04146e-06
5.07289e-06
7.07966e-07
5.17734e-07
5.0824e-06
-1.89964e-06
2.77566e-06
-9.71176e-07
-4.32192e-06
8.46006e-07
-9.63402e-06
3.83526e-06
-1.05887e-05
8.65251e-06
-8.41291e-06
9.47256e-06
1.64548e-06
6.23006e-06
1.77608e-05
3.05272e-06
2.68637e-05
3.0258e-06
1.00517e-05
3.79308e-06
-7.85964e-06
3.47283e-06
-8.17919e-06
9.42558e-06
2.24698e-06
-4.21138e-06
3.31198e-06
-9.89761e-06
5.16126e-06
-7.23486e-06
5.94721e-06
-5.88268e-06
6.57141e-06
-4.66574e-06
6.8639e-06
4.15391e-07
5.14236e-06
6.80386e-06
3.28123e-06
4.63662e-06
2.18167e-06
-3.22243e-06
-1.93932e-07
-7.25853e-06
-1.86773e-06
-8.91499e-06
1.54318e-06
-1.18239e-05
4.20617e-06
-1.01762e-06
4.42574e-06
1.75412e-05
5.72956e-06
2.55598e-05
6.78095e-06
9.00025e-06
5.84587e-06
-6.92463e-06
3.69865e-06
-6.03205e-06
1.31242e-05
6.71238e-06
-1.09238e-05
7.15777e-06
-1.0343e-05
8.09406e-06
-8.17115e-06
8.15805e-06
-5.94667e-06
7.87804e-06
-4.38574e-06
7.8561e-06
4.3731e-07
7.88974e-06
6.77016e-06
7.79684e-06
4.72949e-06
7.05619e-06
-2.48187e-06
1.11473e-06
-1.3171e-06
-4.60403e-06
-3.19626e-06
-3.91849e-06
-1.25095e-05
-1.15477e-07
-4.8207e-06
2.82978e-06
1.45959e-05
7.25929e-06
2.11303e-05
8.73483e-06
7.52468e-06
6.51183e-06
-4.70168e-06
3.73025e-06
-3.25049e-06
1.68544e-05
9.24268e-07
-3.02196e-06
2.10215e-06
-4.02574e-06
3.21218e-06
-3.23867e-06
5.20649e-06
-3.98842e-06
7.8494e-06
-4.5915e-06
1.00778e-05
-3.67074e-06
1.13479e-05
-1.57343e-06
1.21588e-05
6.32251e-07
1.2651e-05
3.04784e-06
1.28683e-05
5.47447e-06
1.29356e-05
7.52703e-06
1.22585e-05
8.23919e-06
1.04503e-05
7.03021e-06
8.83877e-06
5.50638e-06
8.56886e-06
4.86212e-06
9.8812e-06
6.1987e-06
1.14755e-05
4.7959e-06
1.27069e-05
-6.63502e-07
1.26298e-05
-4.03288e-06
1.04083e-05
-5.02256e-06
8.31637e-06
-6.63612e-06
9.86427e-06
-1.16073e-05
-1.54048e-05
1.4165e-05
1.31648e-06
-4.33834e-06
6.69763e-07
-3.37897e-06
5.09166e-07
-3.07802e-06
2.28868e-06
-5.7679e-06
4.97973e-06
-7.28252e-06
7.08847e-06
-5.77944e-06
8.27243e-06
-2.75738e-06
9.57854e-06
-6.73809e-07
1.04767e-05
2.14968e-06
1.08061e-05
5.14508e-06
1.04914e-05
7.84178e-06
9.37638e-06
9.35421e-06
8.30293e-06
8.10366e-06
7.47649e-06
6.33281e-06
7.23991e-06
5.09872e-06
7.94923e-06
5.48944e-06
9.72922e-06
3.01602e-06
1.13941e-05
-2.3283e-06
1.22408e-05
-4.87933e-06
1.30599e-05
-5.84164e-06
1.50386e-05
-8.61475e-06
1.5531e-05
-1.20995e-05
-1.22004e-05
1.23269e-05
3.97661e-06
-8.31487e-06
7.81792e-06
-7.22019e-06
1.02206e-05
-5.48066e-06
9.96228e-06
-5.50949e-06
9.72186e-06
-7.04204e-06
9.84746e-06
-5.905e-06
9.54224e-06
-2.45209e-06
9.44255e-06
-5.74088e-07
7.70933e-06
3.88298e-06
4.58519e-06
8.2693e-06
2.16243e-06
1.02646e-05
3.38609e-07
1.11781e-05
-1.00658e-06
9.44888e-06
-2.37468e-06
7.70095e-06
-3.48304e-06
6.20713e-06
-3.43585e-06
5.44235e-06
-2.97507e-06
2.55537e-06
-2.79631e-06
-2.5069e-06
-1.93708e-06
-5.73845e-06
7.16949e-07
-8.49545e-06
3.29033e-06
-1.11878e-05
2.99257e-06
-1.18015e-05
-8.35541e-06
-8.5215e-07
5.77527e-06
-1.409e-05
1.45306e-05
-1.59754e-05
1.98891e-05
-1.0839e-05
2.03199e-05
-5.94028e-06
1.79163e-05
-4.63831e-06
1.35714e-05
-1.56004e-06
9.26687e-06
1.85249e-06
5.7057e-06
2.98721e-06
1.72264e-06
7.8661e-06
-3.31911e-06
1.33111e-05
-7.88584e-06
1.48314e-05
-1.15731e-05
1.48654e-05
-1.49317e-05
1.28074e-05
-1.75035e-05
1.02728e-05
-1.88595e-05
7.5632e-06
-1.84623e-05
5.04529e-06
-1.76826e-05
1.77584e-06
-1.5923e-05
-4.2664e-06
-1.30736e-05
-8.58772e-06
-1.08289e-05
-1.07401e-05
-1.08902e-05
-1.11263e-05
-1.29027e-05
-9.78876e-06
-6.83976e-06
-1.44181e-05
2.5489e-06
-1.66387e-05
4.47928e-06
-1.79056e-05
4.33991e-06
-1.06995e-05
3.35277e-06
-4.953e-06
1.29923e-06
-2.58469e-06
-2.06031e-06
1.79953e-06
-5.54655e-06
5.33884e-06
-9.25098e-06
6.6916e-06
-1.22849e-05
1.09e-05
-1.43883e-05
1.54145e-05
-1.6935e-05
1.7378e-05
-1.93791e-05
1.73093e-05
-2.21131e-05
1.55412e-05
-2.46734e-05
1.2833e-05
-2.65894e-05
9.47923e-06
-2.727e-05
5.72594e-06
-2.6823e-05
1.32891e-06
-2.60863e-05
-5.00325e-06
-2.50032e-05
-9.67108e-06
-2.39764e-05
-1.17671e-05
-2.31631e-05
-1.19398e-05
-2.22609e-05
-1.06912e-05
-1.02689e-05
-1.88318e-05
-2.70475e-07
-1.63681e-05
-2.43439e-06
-1.57416e-05
-3.8341e-06
-9.29961e-06
-4.19669e-06
-4.59033e-06
-5.12797e-06
-1.65339e-06
-6.86946e-06
3.54104e-06
-9.25364e-06
7.72293e-06
-1.29715e-05
1.04094e-05
-1.67664e-05
1.46948e-05
-1.98711e-05
1.85188e-05
-2.27419e-05
2.02487e-05
-2.53019e-05
1.98693e-05
-2.73627e-05
1.76019e-05
-2.86899e-05
1.41602e-05
-2.8969e-05
9.7584e-06
-2.80999e-05
4.85679e-06
-2.65242e-05
-2.46893e-07
-2.71422e-05
-4.38549e-06
-2.88058e-05
-8.00779e-06
-2.9358e-05
-1.12152e-05
-2.88666e-05
-1.24315e-05
-2.74171e-05
-1.21409e-05
-1.33229e-05
-2.43632e-05
-8.14145e-07
-1.55539e-05
-2.80505e-06
-1.37506e-05
-3.12205e-06
-8.98257e-06
-3.19043e-06
-4.52197e-06
-4.12834e-06
-7.15577e-07
-5.01954e-06
4.43217e-06
-6.7933e-06
9.49657e-06
-1.02042e-05
1.38198e-05
-1.42711e-05
1.87609e-05
-1.83759e-05
2.2624e-05
-2.22654e-05
2.41384e-05
-2.58184e-05
2.34227e-05
-2.86913e-05
2.04749e-05
-3.06658e-05
1.61348e-05
-3.12391e-05
1.03318e-05
-3.03317e-05
3.94936e-06
-2.92007e-05
-1.37771e-06
-2.8652e-05
-4.93412e-06
-3.04685e-05
-6.19092e-06
-3.15519e-05
-1.01316e-05
-3.15513e-05
-1.24318e-05
-3.02045e-05
-1.34872e-05
-1.53727e-05
-2.81539e-05
-1.39752e-07
-1.54143e-05
-6.75714e-07
-1.32148e-05
-7.34431e-07
-8.92403e-06
-5.75779e-07
-4.68081e-06
-6.42804e-07
-6.48689e-07
-9.66619e-07
4.75575e-06
-2.33703e-06
1.08666e-05
-5.27925e-06
1.67617e-05
-1.02405e-05
2.37225e-05
-1.66597e-05
2.90434e-05
-2.36937e-05
3.11733e-05
-2.84529e-05
2.81821e-05
-3.17153e-05
2.37376e-05
-3.31943e-05
1.76144e-05
-3.22854e-05
9.42579e-06
-2.9211e-05
8.77289e-07
-2.58251e-05
-4.76191e-06
-2.84169e-05
-2.34198e-06
-3.71903e-05
2.58263e-06
-3.55472e-05
-1.17727e-05
-2.4153e-05
-2.38227e-05
-1.74536e-05
-2.01856e-05
-1.09103e-05
-2.19155e-05
1.69991e-06
-1.71146e-05
3.3555e-06
-1.48708e-05
5.03133e-06
-1.06002e-05
6.47287e-06
-6.1226e-06
7.46444e-06
-1.64052e-06
8.16849e-06
4.05182e-06
8.28326e-06
1.07524e-05
6.73481e-06
1.83108e-05
3.32986e-06
2.71278e-05
-1.05426e-07
3.248e-05
-5.78279e-06
3.68518e-05
-4.30344e-06
2.67015e-05
-5.81127e-07
2.00142e-05
-2.6563e-05
4.35926e-05
-4.38279e-05
2.669e-05
-4.5957e-05
3.00539e-06
-4.09242e-05
-9.79567e-06
-3.46138e-05
-8.65321e-06
-2.02013e-05
-1.18302e-05
-1.92612e-05
-1.27128e-05
-2.57743e-05
-1.73092e-05
-2.74819e-05
-1.84774e-05
-1.55958e-05
-2.27995e-05
4.63379e-06
-2.17483e-05
8.98647e-06
-1.92234e-05
1.27806e-05
-1.43943e-05
1.60974e-05
-9.43963e-06
1.89033e-05
-4.44626e-06
2.19995e-05
9.56053e-07
2.6109e-05
6.6433e-06
3.20305e-05
1.23902e-05
4.36021e-05
1.55584e-05
5.24005e-05
2.36813e-05
5.27281e-05
3.6514e-05
6.61324e-05
1.32972e-05
4.02726e-05
4.58715e-05
2.77752e-05
5.60882e-05
1.2893e-05
4.15707e-05
-2.82535e-07
1.61783e-05
-6.75967e-06
-3.32123e-06
-3.65741e-06
-1.17563e-05
-9.33018e-07
-1.4555e-05
7.65895e-07
-1.44127e-05
-3.03665e-07
-1.62414e-05
5.26722e-07
-1.93086e-05
-1.65326e-05
1.464e-06
7.29257e-06
-2.904e-05
1.43357e-05
-2.62656e-05
2.14234e-05
-2.14804e-05
2.78081e-05
-1.58235e-05
3.46698e-05
-1.13075e-05
4.37594e-05
-8.13314e-06
5.83684e-05
-7.96461e-06
7.96615e-05
-8.9032e-06
9.69547e-05
-1.74038e-06
0.000109675
1.09521e-05
0.00010823
3.79588e-05
8.12448e-05
4.02857e-05
6.77548e-05
5.93634e-05
5.95601e-05
6.42896e-05
5.36668e-05
4.74656e-05
4.55882e-05
2.42562e-05
3.57647e-05
6.50178e-06
2.89593e-05
-4.95125e-06
2.29955e-05
-8.59104e-06
1.72263e-05
-8.64299e-06
1.14904e-05
-1.05051e-05
6.61794e-06
-1.44351e-05
-1.46985e-05
4.78348e-06
1.43759e-05
-4.34158e-05
2.534e-05
-3.72281e-05
3.75684e-05
-3.37076e-05
4.82651e-05
-2.65191e-05
5.75852e-05
-2.06259e-05
6.77489e-05
-1.82947e-05
7.54395e-05
-1.56539e-05
8.14432e-05
-1.49071e-05
8.7601e-05
-7.89774e-06
9.2012e-05
6.54351e-06
8.66526e-05
4.33227e-05
5.94399e-05
6.74951e-05
4.82996e-05
7.05093e-05
4.65965e-05
6.59961e-05
4.60328e-05
4.80286e-05
4.29756e-05
2.73125e-05
3.86171e-05
1.08597e-05
3.2989e-05
6.76474e-07
2.72502e-05
-2.85252e-06
2.1707e-05
-3.09966e-06
1.79816e-05
-6.77937e-06
1.45978e-05
-1.10517e-05
-1.10818e-05
1.09805e-05
3.14128e-06
-4.65563e-05
4.11345e-06
-3.82009e-05
9.78083e-06
-3.93771e-05
1.9636e-05
-3.6375e-05
2.96107e-05
-3.06018e-05
3.86764e-05
-2.73611e-05
5.04663e-05
-2.74442e-05
5.55648e-05
-2.00037e-05
4.65244e-05
1.14631e-06
3.07913e-05
2.22784e-05
2.11097e-05
5.30017e-05
1.81126e-05
7.04928e-05
2.01057e-05
6.85172e-05
2.75548e-05
5.85461e-05
3.34145e-05
4.2168e-05
3.43281e-05
2.63981e-05
3.20556e-05
1.31316e-05
2.82321e-05
4.49956e-06
2.37467e-05
1.6326e-06
2.00674e-05
5.79524e-07
1.77318e-05
-4.44405e-06
1.51945e-05
-8.51439e-06
-7.13458e-06
1.12462e-05
-5.50913e-07
-4.60033e-05
-5.54591e-07
-3.81968e-05
-4.55566e-06
-3.53751e-05
-9.51919e-06
-3.14114e-05
-9.56334e-06
-3.05583e-05
-1.04454e-05
-2.64808e-05
-1.46757e-05
-2.32156e-05
-2.0757e-05
-1.39243e-05
-2.34406e-05
3.82851e-06
-2.74145e-05
2.625e-05
-2.25567e-05
4.81432e-05
-9.79275e-06
5.77291e-05
3.37076e-06
5.53529e-05
1.58049e-05
4.6111e-05
2.35737e-05
3.43984e-05
2.60517e-05
2.39195e-05
2.4788e-05
1.43948e-05
2.16529e-05
7.63423e-06
1.82757e-05
5.00942e-06
1.63721e-05
2.48303e-06
1.46285e-05
-2.70066e-06
1.19538e-05
-5.84033e-06
-2.19924e-06
7.01739e-06
-6.69817e-06
-3.93039e-05
-1.04613e-05
-3.44318e-05
-1.57984e-05
-3.00358e-05
-2.06638e-05
-2.65437e-05
-2.50867e-05
-2.61339e-05
-2.92589e-05
-2.23079e-05
-3.59659e-05
-1.6509e-05
-4.26482e-05
-7.24296e-06
-4.4869e-05
6.04816e-06
-4.19922e-05
2.33729e-05
-3.21559e-05
3.83066e-05
-1.77395e-05
4.33119e-05
-2.94012e-06
4.05527e-05
8.66819e-06
3.45021e-05
1.5609e-05
2.74571e-05
1.88957e-05
2.06323e-05
1.90887e-05
1.42015e-05
1.72866e-05
9.43606e-06
1.5607e-05
6.68872e-06
1.43117e-05
3.7782e-06
1.22338e-05
-6.22993e-07
8.54226e-06
-2.14888e-06
3.73121e-06
2.61072e-06
-6.94208e-06
-3.23616e-05
-1.16776e-05
-2.96957e-05
-1.58954e-05
-2.58169e-05
-2.05782e-05
-2.18594e-05
-2.66404e-05
-2.00705e-05
-3.24612e-05
-1.64864e-05
-3.81578e-05
-1.08123e-05
-4.27042e-05
-2.69675e-06
-4.37571e-05
7.10077e-06
-3.89678e-05
1.85833e-05
-2.82835e-05
2.76221e-05
-1.54482e-05
3.04762e-05
-3.96588e-06
2.90701e-05
4.74447e-06
2.57915e-05
1.04897e-05
2.17117e-05
1.37055e-05
1.74163e-05
1.46081e-05
1.32988e-05
1.40787e-05
9.96523e-06
1.33183e-05
7.44894e-06
1.22727e-05
4.8237e-06
1.00464e-05
1.60329e-06
6.79661e-06
1.10036e-06
8.24237e-06
2.28446e-06
-5.94496e-06
-2.64172e-05
-1.09319e-05
-2.47091e-05
-1.51744e-05
-2.15743e-05
-1.91334e-05
-1.79e-05
-2.38227e-05
-1.53807e-05
-2.8506e-05
-1.18028e-05
-3.24635e-05
-6.85457e-06
-3.48133e-05
-3.46892e-07
-3.42252e-05
6.51262e-06
-2.93629e-05
1.3721e-05
-2.08837e-05
1.91428e-05
-1.16838e-05
2.12763e-05
-3.71321e-06
2.10994e-05
2.45829e-06
1.962e-05
6.81319e-06
1.73567e-05
9.54995e-06
1.46795e-05
1.0871e-05
1.19776e-05
1.12812e-05
9.55481e-06
1.12332e-05
7.4969e-06
1.06461e-05
5.41079e-06
9.07997e-06
3.1692e-06
7.27311e-06
2.90721e-06
9.17873e-06
6.33563e-06
-4.73407e-06
-2.1684e-05
-9.08489e-06
-2.03589e-05
-1.28528e-05
-1.78068e-05
-1.62918e-05
-1.44611e-05
-1.98756e-05
-1.1797e-05
-2.30825e-05
-8.59576e-06
-2.53764e-05
-4.56064e-06
-2.60833e-05
3.60015e-07
-2.47164e-05
5.14585e-06
-2.08369e-05
9.84152e-06
-1.5105e-05
1.3411e-05
-9.10034e-06
1.52718e-05
-3.75722e-06
1.57563e-05
6.16209e-07
1.52465e-05
3.9681e-06
1.40048e-05
6.33653e-06
1.2311e-05
7.87004e-06
1.04441e-05
8.7958e-06
8.62894e-06
9.28293e-06
7.00968e-06
9.24467e-06
5.4491e-06
8.4621e-06
3.95182e-06
7.70371e-06
3.66518e-06
8.26703e-06
8.61466e-06
-3.96728e-06
-1.77175e-05
-7.81154e-06
-1.65153e-05
-1.11802e-05
-1.44387e-05
-1.39203e-05
-1.17212e-05
-1.6455e-05
-9.26243e-06
-1.85359e-05
-6.51503e-06
-1.97574e-05
-3.3392e-06
-1.96946e-05
2.9715e-07
-1.83098e-05
3.76117e-06
-1.55224e-05
7.05419e-06
-1.17697e-05
9.65831e-06
-7.7919e-06
1.1294e-05
-4.05052e-06
1.2015e-05
-7.7094e-07
1.1967e-05
1.92958e-06
1.13043e-05
4.02578e-06
1.02148e-05
5.56232e-06
8.9075e-06
6.64804e-06
7.54316e-06
7.41394e-06
6.24374e-06
7.80759e-06
5.05554e-06
7.68567e-06
4.07368e-06
7.41222e-06
3.93882e-06
7.05667e-06
8.62168e-06
-3.42646e-06
-1.42918e-05
-6.78614e-06
-1.31563e-05
-9.70991e-06
-1.15154e-05
-1.20327e-05
-9.39881e-06
-1.39377e-05
-7.3577e-06
-1.52915e-05
-5.16148e-06
-1.59486e-05
-2.68226e-06
-1.568e-05
2.85455e-08
-1.45301e-05
2.61122e-06
-1.25168e-05
5.04092e-06
-9.90001e-06
7.04161e-06
-7.04241e-06
8.43646e-06
-4.22456e-06
9.19718e-06
-1.63604e-06
9.37854e-06
5.98492e-07
9.06986e-06
2.41938e-06
8.39395e-06
3.83628e-06
7.49061e-06
4.90579e-06
6.47362e-06
5.70806e-06
5.44146e-06
6.27709e-06
4.48666e-06
6.58281e-06
3.76812e-06
6.76311e-06
3.75809e-06
5.8394e-06
7.97976e-06
-3.03223e-06
-1.12601e-05
-6.02131e-06
-1.01677e-05
-8.59214e-06
-8.94501e-06
-1.05892e-05
-7.40212e-06
-1.20958e-05
-5.8513e-06
-1.30979e-05
-4.15966e-06
-1.34761e-05
-2.30411e-06
-1.3148e-05
-2.997e-07
-1.21852e-05
1.64843e-06
-1.06275e-05
3.48326e-06
-8.64386e-06
5.05801e-06
-6.43888e-06
6.23156e-06
-4.21164e-06
6.97002e-06
-2.11514e-06
7.28212e-06
-2.57773e-07
7.21257e-06
1.30408e-06
6.83217e-06
2.56025e-06
6.23448e-06
3.53625e-06
5.49764e-06
4.28133e-06
4.69642e-06
4.84871e-06
3.91946e-06
5.30297e-06
3.3138e-06
5.84091e-06
3.22051e-06
4.53877e-06
7.14069e-06
-2.76238e-06
-8.49823e-06
-5.4367e-06
-7.49382e-06
-7.7259e-06
-6.65617e-06
-9.48664e-06
-5.64167e-06
-1.07534e-05
-4.58472e-06
-1.15194e-05
-3.39388e-06
-1.17403e-05
-2.08328e-06
-1.13986e-05
-6.41457e-07
-1.05505e-05
8.00264e-07
-9.27611e-06
2.20895e-06
-7.67894e-06
3.46091e-06
-5.91445e-06
4.46715e-06
-4.12003e-06
5.17569e-06
-2.40958e-06
5.57177e-06
-8.66049e-07
5.66915e-06
4.64054e-07
5.50216e-06
1.56152e-06
5.13709e-06
2.43412e-06
4.62509e-06
3.10776e-06
4.02286e-06
3.62885e-06
3.39859e-06
4.07587e-06
2.86708e-06
4.6578e-06
2.63827e-06
3.27165e-06
5.92467e-06
-2.56382e-06
-5.93468e-06
-5.01279e-06
-5.04512e-06
-7.05954e-06
-4.60967e-06
-8.63805e-06
-4.06337e-06
-9.72497e-06
-3.49797e-06
-1.0331e-05
-2.78792e-06
-1.04556e-05
-1.95877e-06
-1.0088e-05
-1.0091e-06
-9.32994e-06
4.22352e-08
-8.23539e-06
1.11446e-06
-6.91181e-06
2.13742e-06
-5.46938e-06
3.02483e-06
-4.00785e-06
3.71429e-06
-2.60806e-06
4.17211e-06
-1.32656e-06
4.38779e-06
-2.02489e-07
4.37822e-06
7.46947e-07
4.18776e-06
1.5204e-06
3.85174e-06
2.12994e-06
3.41344e-06
2.60543e-06
2.92334e-06
3.01195e-06
2.46066e-06
3.49837e-06
2.15246e-06
2.30643e-06
4.46309e-06
-2.41035e-06
-3.52445e-06
-4.68077e-06
-2.77483e-06
-6.58146e-06
-2.70911e-06
-8.00605e-06
-2.63891e-06
-8.97804e-06
-2.52608e-06
-9.45718e-06
-2.30885e-06
-9.47899e-06
-1.93698e-06
-9.09458e-06
-1.3935e-06
-8.36932e-06
-6.82958e-07
-7.39828e-06
1.43515e-07
-6.27002e-06
1.00928e-06
-5.0678e-06
1.82274e-06
-3.86472e-06
2.51135e-06
-2.71483e-06
3.02237e-06
-1.6572e-06
3.33032e-06
-7.17707e-07
3.43887e-06
9.08959e-08
3.3793e-06
7.65121e-07
3.17763e-06
1.31163e-06
2.86707e-06
1.75063e-06
2.48463e-06
2.12657e-06
2.08508e-06
2.52476e-06
1.75386e-06
1.65331e-06
3.1777e-06
-2.30549e-06
-1.21897e-06
-4.44657e-06
-6.33773e-07
-6.21123e-06
-9.44481e-07
-7.52548e-06
-1.32471e-06
-8.37943e-06
-1.67216e-06
-8.75313e-06
-1.93515e-06
-8.69595e-06
-1.99414e-06
-8.27131e-06
-1.81808e-06
-7.56919e-06
-1.38498e-06
-6.68356e-06
-7.41998e-07
-5.69581e-06
2.16764e-08
-4.67508e-06
8.02171e-07
-3.67276e-06
1.5092e-06
-2.72541e-06
2.07519e-06
-1.859e-06
2.46409e-06
-1.08622e-06
2.66625e-06
-4.14315e-07
2.70754e-06
1.57424e-07
2.60602e-06
6.34463e-07
2.39018e-06
1.03146e-06
2.08785e-06
1.37959e-06
1.73691e-06
1.73363e-06
1.40043e-06
1.18144e-06
2.20482e-06
-2.21952e-06
1.00074e-06
-4.26422e-06
1.41103e-06
-5.92924e-06
7.20589e-07
-7.1504e-06
-1.03513e-07
-7.89404e-06
-9.28484e-07
-8.17552e-06
-1.65363e-06
-8.03404e-06
-2.13554e-06
-7.569e-06
-2.28302e-06
-6.87775e-06
-2.07611e-06
-6.05103e-06
-1.56857e-06
-5.17193e-06
-8.57255e-07
-4.2867e-06
-8.28822e-08
-3.44132e-06
6.64e-07
-2.65861e-06
1.29267e-06
-1.9518e-06
1.75747e-06
-1.32731e-06
2.04194e-06
-7.82982e-07
2.16337e-06
-3.15258e-07
2.13842e-06
8.31215e-08
1.99192e-06
4.24076e-07
1.74709e-06
7.32104e-07
1.42922e-06
1.04463e-06
1.08741e-06
8.07949e-07
1.41806e-06
-2.15315e-06
3.154e-06
-4.12026e-06
3.37829e-06
-5.69672e-06
2.29718e-06
-6.82706e-06
1.02693e-06
-7.47938e-06
-2.76074e-07
-7.66721e-06
-1.4657e-06
-7.45893e-06
-2.34371e-06
-6.96742e-06
-2.77441e-06
-6.29007e-06
-2.75331e-06
-5.51647e-06
-2.342e-06
-4.70874e-06
-1.6648e-06
-3.92751e-06
-8.63916e-07
-3.20289e-06
-6.04305e-08
-2.54503e-06
6.35e-07
-1.968e-06
1.18063e-06
-1.46912e-06
1.54323e-06
-1.03913e-06
1.73353e-06
-6.71803e-07
1.77121e-06
-3.57984e-07
1.67822e-06
-8.34957e-08
1.47276e-06
1.67485e-07
1.17821e-06
4.24748e-07
8.30846e-07
5.13752e-07
7.18425e-07
-2.10252e-06
5.25697e-06
-4.00688e-06
5.28296e-06
-5.51017e-06
3.80068e-06
-6.55436e-06
2.07129e-06
-7.11657e-06
2.86281e-07
-7.22255e-06
-1.35958e-06
-6.96914e-06
-2.59698e-06
-6.47382e-06
-3.26956e-06
-5.82248e-06
-3.40448e-06
-5.09505e-06
-3.06924e-06
-4.3546e-06
-2.40506e-06
-3.64241e-06
-1.57591e-06
-2.98775e-06
-7.1489e-07
-2.4252e-06
7.26462e-08
-1.94474e-06
7.00347e-07
-1.54503e-06
1.14368e-06
-1.21181e-06
1.40046e-06
-9.33183e-07
1.49269e-06
-6.9978e-07
1.4449e-06
-5.00698e-07
1.27387e-06
-3.15698e-07
9.93515e-07
-1.26654e-07
6.4114e-07
2.99014e-07
8.79824e-08
-2.06483e-06
7.32203e-06
-3.92236e-06
7.14077e-06
-5.36606e-06
5.24462e-06
-6.33239e-06
3.03782e-06
-6.80069e-06
7.54758e-07
-6.82364e-06
-1.33646e-06
-6.55468e-06
-2.86578e-06
-6.09262e-06
-3.73145e-06
-5.48132e-06
-4.0156e-06
-4.80223e-06
-3.74814e-06
-4.1129e-06
-3.0942e-06
-3.45364e-06
-2.23498e-06
-2.85315e-06
-1.31519e-06
-2.33204e-06
-4.4827e-07
-1.91287e-06
2.8135e-07
-1.58279e-06
8.13754e-07
-1.32631e-06
1.1441e-06
-1.12377e-06
1.29026e-06
-9.61674e-07
1.2829e-06
-8.31022e-07
1.14335e-06
-7.17856e-07
8.80168e-07
-6.0256e-07
5.26523e-07
1.58762e-07
-4.6297e-07
-2.03432e-06
9.3569e-06
-3.85853e-06
8.96532e-06
-5.2603e-06
6.64665e-06
-6.16571e-06
3.94345e-06
-6.53735e-06
1.12658e-06
-6.48437e-06
-1.38925e-06
-6.22995e-06
-3.12003e-06
-5.82055e-06
-4.14067e-06
-5.25716e-06
-4.5788e-06
-4.63035e-06
-4.37477e-06
-3.98993e-06
-3.73444e-06
-3.36561e-06
-2.85913e-06
-2.79061e-06
-1.89002e-06
-2.29605e-06
-9.42664e-07
-1.90059e-06
-1.1395e-07
-1.61046e-06
5.23752e-07
-1.40324e-06
9.36994e-07
-1.25951e-06
1.14662e-06
-1.16098e-06
1.18444e-06
-1.09125e-06
1.07375e-06
-1.04106e-06
8.30327e-07
-9.92554e-07
4.77406e-07
9.40516e-08
-9.27698e-07
-1.99983e-06
1.13568e-05
-3.79539e-06
1.07611e-05
-5.16422e-06
8.0157e-06
-6.00792e-06
4.78735e-06
-6.31892e-06
1.43776e-06
-6.26039e-06
-1.44762e-06
-6.03083e-06
-3.34942e-06
-5.62718e-06
-4.54416e-06
-5.10146e-06
-5.10437e-06
-4.53715e-06
-4.93891e-06
-3.956e-06
-4.31543e-06
-3.37289e-06
-3.44208e-06
-2.8134e-06
-2.44937e-06
-2.31992e-06
-1.43601e-06
-1.92381e-06
-5.09942e-07
-1.64092e-06
2.40972e-07
-1.45996e-06
7.56117e-07
-1.35471e-06
1.04144e-06
-1.30021e-06
1.13002e-06
-1.28339e-06
1.05705e-06
-1.29009e-06
8.36958e-07
-1.30358e-06
4.91728e-07
9.19446e-08
-1.30177e-06
-1.93814e-06
1.32955e-05
-3.69188e-06
1.25152e-05
-5.01768e-06
9.34172e-06
-5.78981e-06
5.55965e-06
-6.11289e-06
1.761e-06
-6.12296e-06
-1.43742e-06
-5.85967e-06
-3.61258e-06
-5.40815e-06
-4.99555e-06
-4.91819e-06
-5.59421e-06
-4.42634e-06
-5.43064e-06
-3.93136e-06
-4.8103e-06
-3.41806e-06
-3.95528e-06
-2.89507e-06
-2.97227e-06
-2.40138e-06
-1.92961e-06
-1.98807e-06
-9.23182e-07
-1.68601e-06
-6.10299e-08
-1.50434e-06
5.74488e-07
-1.41709e-06
9.54219e-07
-1.39504e-06
1.10799e-06
-1.41593e-06
1.07806e-06
-1.46471e-06
8.86029e-07
-1.52633e-06
5.52629e-07
1.45591e-07
-1.57988e-06
-1.82579e-06
1.51213e-05
-3.50443e-06
1.4194e-05
-4.75336e-06
1.05908e-05
-5.48859e-06
6.295e-06
-5.85158e-06
2.12408e-06
-5.88105e-06
-1.40786e-06
-5.54042e-06
-3.95313e-06
-5.06888e-06
-5.46702e-06
-4.64591e-06
-6.01711e-06
-4.25539e-06
-5.8211e-06
-3.86406e-06
-5.20157e-06
-3.44606e-06
-4.37323e-06
-2.99152e-06
-3.42677e-06
-2.51838e-06
-2.40273e-06
-2.08631e-06
-1.35525e-06
-1.75246e-06
-3.9488e-07
-1.54553e-06
3.67538e-07
-1.45356e-06
8.62216e-07
-1.4442e-06
1.09862e-06
-1.49013e-06
1.124e-06
-1.57234e-06
9.67921e-07
-1.67032e-06
6.51231e-07
2.39034e-07
-1.76439e-06
-1.63926e-06
1.67609e-05
-3.1934e-06
1.57482e-05
-4.32731e-06
1.17248e-05
-5.04982e-06
7.01755e-06
-5.44752e-06
2.52181e-06
-5.39608e-06
-1.45928e-06
-4.99435e-06
-4.35486e-06
-4.57917e-06
-5.8822e-06
-4.25235e-06
-6.34393e-06
-3.98108e-06
-6.09239e-06
-3.7162e-06
-5.46647e-06
-3.41268e-06
-4.67678e-06
-3.05238e-06
-3.78711e-06
-2.63611e-06
-2.81906e-06
-2.20806e-06
-1.78336e-06
-1.83839e-06
-7.64629e-07
-1.58726e-06
1.16313e-07
-1.46765e-06
7.4251e-07
-1.45506e-06
1.08591e-06
-1.50991e-06
1.17875e-06
-1.60938e-06
1.06751e-06
-1.73353e-06
7.74523e-07
3.60785e-07
-1.85528e-06
-1.36902e-06
1.81297e-05
-2.73735e-06
1.71165e-05
-3.73708e-06
1.27245e-05
-4.41817e-06
7.69861e-06
-4.77649e-06
2.88009e-06
-4.61259e-06
-1.62324e-06
-4.2313e-06
-4.73621e-06
-3.92641e-06
-6.18716e-06
-3.72487e-06
-6.54555e-06
-3.58546e-06
-6.23189e-06
-3.45403e-06
-5.59798e-06
-3.28395e-06
-4.84697e-06
-3.04257e-06
-4.0286e-06
-2.72076e-06
-3.141e-06
-2.32896e-06
-2.17531e-06
-1.94084e-06
-1.1529e-06
-1.63512e-06
-1.89579e-07
-1.46956e-06
5.76775e-07
-1.43157e-06
1.04776e-06
-1.4814e-06
1.2284e-06
-1.58686e-06
1.17258e-06
-1.72303e-06
9.11218e-07
4.9845e-07
-1.86129e-06
-1.01954e-06
1.91495e-05
-2.14197e-06
1.8239e-05
-2.97847e-06
1.35609e-05
-3.54918e-06
8.26923e-06
-3.74164e-06
3.07243e-06
-3.52464e-06
-1.84036e-06
-3.2765e-06
-4.98448e-06
-3.12141e-06
-6.34239e-06
-3.07153e-06
-6.59556e-06
-3.07145e-06
-6.23212e-06
-3.07575e-06
-5.59384e-06
-3.03924e-06
-4.88365e-06
-2.92736e-06
-4.14066e-06
-2.71789e-06
-3.35066e-06
-2.41096e-06
-2.48244e-06
-2.0411e-06
-1.52297e-06
-1.69453e-06
-5.36368e-07
-1.46497e-06
3.46984e-07
-1.38198e-06
9.64526e-07
-1.41444e-06
1.26065e-06
-1.51367e-06
1.27177e-06
-1.65022e-06
1.04668e-06
6.40087e-07
-1.79211e-06
-6.22798e-07
1.9772e-05
-1.44661e-06
1.90627e-05
-2.07936e-06
1.41936e-05
-2.44494e-06
8.63469e-06
-2.40354e-06
3.03088e-06
-2.21232e-06
-2.03174e-06
-2.14309e-06
-5.05388e-06
-2.17922e-06
-6.30644e-06
-2.30303e-06
-6.47193e-06
-2.45794e-06
-6.0774e-06
-2.5946e-06
-5.45738e-06
-2.68282e-06
-4.79563e-06
-2.69468e-06
-4.12902e-06
-2.60988e-06