/*--------------------------------*- C++ -*----------------------------------*\
| =========                 |                                                 |
| \\      /  F ield         | OpenFOAM: The Open Source CFD Toolbox           |
|  \\    /   O peration     | Version:  2312                                  |
|   \\  /    A nd           | Website:  www.openfoam.com                      |
|    \\/     M anipulation  |                                                 |
\*---------------------------------------------------------------------------*/
FoamFile
{
    version     2.0;
    format      ascii;
    arch        "LSB;label=32;scalar=64";
    class       volScalarField;
    location    "0.95";
    object      alphas;
}
// * * * * * * * * * * * * * * * * * * * * * * * * * * * * * * * * * * * * * //

dimensions      [0 0 0 0 0 0 0];

internalField   nonuniform List<scalar> 
2268
(
2
2
2
2
2
2
2
2
2
2
2
2
2
2
2
2
2
2
2
2
2
1.99997
1.99993
2
2
2
2
2
2
2
2
2
2
2
2
2
2
2
2
2
2
2
2
2
1.99998
1.99993
2
2
2
2
2
2
2
2
2
2
2
2
2
2
2
2
2
2
2
2
2
2
2
2
2
2
2
2
2
2
2
2
2
2
2
2
2
2
2
2
2
2
2
2
2
1.99999
2
2
2
2
2
2
2
2
2
2
2
2
2
2
2
2
2
2
2
2
2
1.99998
1.99997
2
2
2
2
1.99537
1.87971
1.66999
1.54559
1.52496
1.55712
1.60927
1.65155
1.68166
1.69475
1.69098
1.66454
1.61524
1.5549
1.5098
1.50567
1.54465
1.59266
1.61966
2
2
2
1.85802
1.08877
0.431187
0.170847
0.0963078
0.0880068
0.107137
0.142103
0.177414
0.208122
0.223626
0.220466
0.195676
0.156166
0.116145
0.0891139
0.0877806
0.115417
0.183805
0.292391
2
1.89376
1.35562
0.369739
0.000366782
3.63295e-07
9.95212e-07
2.32544e-06
4.65075e-06
8.71215e-06
1.77445e-05
3.45439e-05
3.1213e-05
4.78649e-05
7.84791e-05
0.000266163
0.000389067
0.000518236
0.000602399
0.000664006
0.000770782
0.0172749
0.157109
1.42541
1.39069
1.18463
1.17457
1.17601
1.17735
1.17167
1.25168
1.61083
1.85854
1.89727
1.90297
1.89199
1.87349
1.89417
1.97227
1.95613
1.35502
1.02102
1.39454
1.2678
1.19897
1.12363
1.09424
0.983255
0.88211
0.805334
0.782442
0.828766
1.00951
1.53741
1.90723
1.90844
1.89568
1.94006
1.88419
1.22203
0.484619
0.99533
1.25461
1.21842
1.14343
0.700581
0.388762
0.343973
0.325494
0.318999
0.326706
0.341963
0.59452
1.36405
1.63498
1.77318
1.91397
1.78804
0.934243
0.474382
1.03429
1.23642
1.36937
0.805419
0.168397
0.147636
0.412753
0.687851
0.669116
0.33469
0.174287
0.21697
0.630357
1.63854
1.91899
1.85405
1.54866
0.779652
0.673323
1.04641
1.14755
0.718698
0.20102
0.391136
1.00001
1.17783
1.16221
1.02804
0.463583
0.161416
0.228188
1.19486
1.67918
1.93866
1.67435
1.15652
0.514441
1.23582
1.16185
1.03872
0.443158
0.402967
0.849349
1.2053
1.492
1.80658
1.29427
0.629779
0.1738
0.615892
1.48885
1.6919
1.72814
1.24509
0.740657
0.636155
1.33491
1.43071
0.901743
0.252519
0.425458
0.702551
0.57479
0.897547
1.9338
1.96229
0.869496
0.692953
1.33699
1.70185
1.81995
1.57121
0.934523
0.730549
0.782071
1.20275
1.67306
0.796238
0.171822
0.225186
0.227531
0.16572
0.649256
2.14062
2.12998
1.62802
1.25327
1.73945
1.81617
1.59623
1.39364
0.781799
0.502538
0.618418
0.946167
0.466302
0.271588
0.0740225
3.47012e-09
9.11893e-09
3.77478e-08
1.40027e-07
4.34636e-07
7.0041e-07
7.13992e-07
2.08997e-06
4.92178e-06
5.04814e-06
5.37322e-06
5.49394e-06
0.000168511
0.000170093
0.000172066
0.030043
0.134799
0.301639
0.492448
0.867347
2.89288e-08
1.79602e-08
1.39687e-08
3.84308e-09
1.88065e-09
1.70883e-09
1.46885e-09
3.64152e-09
3.10389e-07
2.46029e-07
1.3426e-07
4.36906e-07
0.0110164
0.0144402
0.00486152
0.00205959
0.0506675
0.252082
0.836007
1.23439
1.47282
1.51473
2.01932
3.45947e-09
4.15906e-09
2.22954e-09
1.14855e-09
2.43831e-09
6.09678e-09
1.00828e-08
9.44524e-07
1.10534e-07
2.05486e-06
0.0232056
0.061052
0.135864
0.181711
0.123355
0.132917
0.882818
1.46346
1.83701
2.7149
2.53351
2.08766
1.4595
1.03314e-09
1.08673e-09
8.67351e-10
1.33706e-09
9.06693e-08
0.000104027
0.00119039
0.000136078
0.00537684
0.0519093
0.225086
0.532193
0.536608
0.757675
1.10601
1.5865
2.73039
2.91563
2.96688
2.96882
2.83617
1.70883
1.41107
1.21308e-09
6.91876e-10
6.03103e-10
6.68867e-08
3.71276e-08
0.0033602
0.0241822
0.000477341
0.182086
0.798619
0.869315
0.778324
0.963622
1.49267
2.81355
2.9682
2.96884
2.96886
2.96886
2.96886
2.96886
2.29864
1.41158
1.22218e-09
1.10609e-06
1.0349e-05
6.29713e-08
1.13195e-07
0.0132616
0.277061
1.22739
1.23
1.06813
0.867735
1.01922
1.00017
1.70258
2.96878
2.96883
2.96885
2.96885
2.96886
2.59135
1.82611
1.82053
2.23754
1.04996e-08
1.05669e-08
1.06623e-06
0.00796043
0.238551
0.959683
1.90836
1.89358
1.02981
0.905638
0.999984
1.00001
1.00002
1.05665
1.44427
1.99004
2.30491
2.34919
1.83038
1.16462
1.02195
1.02335
1.04608
0.813634
0.444303
0.182377
0.684726
1.71214
1.9627
2.10688
1.31085
0.972098
0.993962
0.999999
1.00001
1.00001
1.00001
1.00001
1.00002
1.0012
1.00389
1.00006
1.00007
1.02568
1.04744
1.05525
2.41769
2.1623
1.55298
1.94675
2.00628
1.95989
1.21335
1.00008
0.999996
0.999993
1
1.00001
1.28484
1.6248
1.75356
1.81922
1.92767
2.03453
2.14704
2.34026
2.45196
2.43203
2.33602
2.56414
1.88494
1.49499
1.70817
1.66846
1.0974
1.00002
1.00002
1
1.00001
1.03918
2.01521
2.76434
2.9268
2.95687
2.97178
2.98619
2.99558
2.99933
3
3
3
3
2.06861
1.00081
1.01133
1.03341
1.02804
0.999922
0.999921
0.999873
0.999925
1.39467
2.42314
2.98627
3
3
3
3
3
3
3
3
3
3
3
1.91682
1.00031
1.00031
1.00028
1.00013
0.999815
0.999614
1.37099
2.11051
2.78688
3
3
3
3
3
2.99999
2.99999
2.99999
2.99999
2.99999
3
3
3
1.81698
1.00031
1.00031
1.13034
1.44829
1.83474
2.35928
2.79672
2.99421
2.99997
3
3
3
3
2.99999
2.99999
2.99999
2.99999
3
3
3
3
3
1.28687
1.0161
1.68334
2.55215
2.85916
2.96932
2.99988
2.9999
3
3
3
3
3
3
2.99999
2.99999
2.99999
3
3
3
3
3
3
1.20575
1.35693
2.87899
3
3
3
3
3
3
3
3
3
3
3
3
3
3
3
3
3
3
3
3
1.20605
2.43034
3
3
3
3
3
3
3
3
3
3
3
3
3
3
3
3
3
3
3
3
3
1.20572
2.94492
3
3
3
3
3
3
3
3
3
3
3
3
3
3
3
3
3
3
3
3
3
1.78577
2.97637
3
3
3
3
3
3
3
3
3
3
3
3
3
3
3
3
3
3
3
3
3
2.95423
2.99876
2.99999
2.99999
3
3
3
3
3
3
3
3
3
3
3
3
3
3
3
3
3
3
3
2.99986
2.99997
2.99997
2.99999
3
3
3
3
3
3
3
3
3
3
3
3
3
3
3
3
3
3
3
3
2.99999
2.99999
3
3
3
3
3
3
3
3
3
3
3
3
3
3
3
3
3
3
3
3
3
3
3
3
3
3
3
3
3
3
3
3
3
3
3
3
3
3
3
3
3
3
3
3
3
3
3
3
3
3
3
3
3
3
3
3
3
3
3
3
3
3
3
3
3
3
2.99998
2.99999
2.99999
2.99999
3
3
3
3
3
3
3
3
3
3
3
3
3
3
3
3
3
3
3
2.99992
2.99992
2.99992
2.99998
3
3
3
3
3
3
3
3
3
3
3
3
3
3
3
3
3
3
3
2.99996
2.99992
2.99993
2.99999
3
3
3
3
3
3
3
3
3
3
3
3
3
3
3
3
3
3
3
3
2.99995
2.99999
3
3
3
3
3
3
3
3
3
3
3
3
3
3
3
3
3
3
3
3
3
3
3
3
3
3
3
3
3
3
3
3
3
3
3
3
3
3
3
3
3
3
3
3
3
3
3
3
3
3
3
3
3
3
3
3
3
3
3
3
3
3
3
3
3
3
3
3
3
3
3
3
3
3
3
3
3
3
3
3
3
3
3
3
3
3
3
3
3
3
3
3
3
3
3
3
3
3
3
3
3
3
3
3
3
3
3
3
3
3
3
3
3
3
3
3
3
3
3
3
3
3
3
3
3
3
3
3
3
3
3
3
3
3
3
3
3
3
3
3
3
3
3
3
3
3
3
3
3
3
3
3
3
3
3
3
3
3
3
3
3
3
3
3
3
3
3
3
3
3
3
3
3
3
3
3
3
3
3
3
3
3
3
3
3
3
3
3
3
3
3
3
3
3
3
3
3
3
3
3
3
3
3
3
3
3
3
3
3
3
3
3
3
3
3
3
3
3
3
3
3
3
3
3
3
3
3
3
3
3
3
3
3
3
3
3
3
3
3
3
3
3
3
3
3
3
3
3
3
3
3
3
3
3
3
3
3
3
3
3
3
3
3
3
3
3
3
3
3
3
3
3
3
3
3
3
3
3
3
3
3
3
3
3
3
3
3
3
3
3
3
3
3
3
3
3
3
3
3
3
3
3
3
3
3
3
3
3
3
3
3
3
3
3
3
3
3
3
3
3
3
3
3
3
3
3
3
3
3
3
3
3
3
3
3
3
3
3
3
3
3
3
3
3
3
3
3
3
3
3
3
3
3
3
3
3
3
3
3
3
3
3
3
3
3
1.33009
1.55538
1.76291
1.94151
2.04152
1.63539
1.12348
0.866821
1.24493
0.843974
0.841692
0.645017
1.41427
1.24626
0.900038
0.854434
1.40482
1.39926
1.38005
1.38156
2.23975
2.23769
1.66977
1.49088
1.04262
1.22788
1.6151
1.60276
1.04187
1.03294
1.01707
1.00882
2.41238
2.41261
2.18601
2.07588
3
2.99999
2.99998
2.99998
3
3
3
3
2.99999
2.99999
2.99999
2.99999
3
3
3
2.99999
3
3
3
3
3
3
3
3
3
3
3
3
3
3
3
3
3
3
3
3
3
3
3
3
3
3
3
3
3
3
3
3
3
3
3
3
3
3
3
3
3
3
3
3
3
3
3
3
3
3
3
3
3
3
3
3
3
3
3
3
3
3
3
3
3
3
3
3
3
3
3
3
3
3
3
3
3
3
3
3
3
3
3
3
3
3
3
3
3
3
3
3
3
3
3
3
3
3
3
3
3
3
3
3
3
3
3
3
3
3
3
3
3
3
3
3
1.65999
0.259123
0.0421038
0.0492886
0.0312559
0.0389827
0.75165
1.96956
2.08955
2.08941
1.75122
1.23387
1.45045
1.7439
1.40467
0.839732
0.320153
0.34899
0.943245
0.601046
0.0357423
0.0312439
0.0302628
0.0277219
0.103895
0.886609
1.93978
1.84063
1.27114
1.23552
1.22628
1.46631
1.33745
1.11887
0.536939
0.19678
0.145636
0.97604
0.322651
0.157578
0.167333
0.207419
0.263702
0.38421
0.669912
1.77616
1.99895
1.82845
1.27163
1.18103
1.15121
0.836738
0.384279
0.219559
0.173593
0.475353
1.01715
0.827823
0.842521
0.987096
1.13227
1.06959
1.06824
1.21175
1.41517
1.63001
2.07876
2.06836
1.805
1.69734
1.57968
0.66428
0.17221
0.213906
0.908561
1.02565
1.62291
1.83641
1.83894
1.52033
1.08838
1.13976
1.35704
1.23148
1.1165
1.46494
1.91179
2.03681
2.00806
1.89162
1.12819
0.297077
0.732953
1.34838
1.89131
1.5649
1.8389
1.40449
1.00039
1.0004
1.0004
1.0004
1.00041
1.0004
1.03556
1.08812
0.965208
0.80265
0.740204
0.697913
1.02116
1.45101
1.78285
2.89283
1.54368
1.0626
1.00019
1.00023
1.0033
1.01232
1.01203
1.00235
1.00028
1.00054
1.00262
1.00863
1.0308
1.08519
1.23816
1.56259
2.27154
2.86075
2.9853
1.00491
1.00392
1.00042
1.00037
1.00038
1.00067
1.00078
1.00082
1.02919
1.2942
1.70926
2.05425
2.28051
2.47896
2.66166
2.92717
2.99445
2.99967
2.99961
2.03731
1.98389
1.82052
1.60173
1.46093
1.39936
1.38407
1.51584
2.20815
2.81707
2.96649
2.97165
2.98174
2.98985
2.99734
2.99957
2.99955
2.99957
2.99953
2.99996
2.99994
2.99989
2.98806
2.88948
2.85025
2.85838
2.96559
2.99426
2.99661
2.99998
2.99936
2.99798
2.99697
2.99742
2.99859
2.99952
2.99949
2.99922
3
3
3
2.99999
2.99993
2.99978
2.99969
2.99997
3
2.99998
3
2.99759
2.99455
2.99454
2.99456
2.99839
2.99966
2.9986
2.99821
3
3
3
3
3
2.99999
3
3
3
3
3
2.99856
2.99652
2.99717
2.99981
3
2.99982
2.99867
2.99863
2.99998
2.99999
3
3
2.99999
2.99997
2.99998
2.99998
3
3
3
3
3
3
3
3
3
3
3
2.99999
2.99996
2.99996
2.99999
3
2.99997
2.99955
2.99949
2.99986
3
3
3
3
3
3
3
3
3
3
3
2.99998
2.99996
2.99996
3
3
2.99945
2.99934
2.99935
2.99985
3
3
3
3
3
3
3
2.99999
3
3
3
2.99996
2.99996
2.99999
3
2.99991
2.99935
2.99934
2.99972
3
3
3
3
3
3
3
2.99796
2.99938
3
3
2.99998
2.99996
2.99998
3
3
2.99979
2.99969
2.99994
3
3
3
3
3
3
3
2.99662
2.99696
3
3
3
2.99997
2.99997
2.99999
2.99999
3
3
3
3
3
3
3
3
3
2.99974
2.99661
2.9985
3
3
3
3
2.99999
2.99999
3
3
3
3
3
3
3
3
3
3
2.99893
2.99727
2.99999
3
3
3
3
3
3
3
3
3
3
3
3
3
3
3
3
2.99877
3
2.99999
3
3
3
3
3
3
3
3
3
3
3
3
3
3
3
3
2.99948
2.99999
3
3
3
3
3
3
3
3
3
3
3
3
3
3
3
3
3
3
3
3
3
3
3
3
3
3
3
3
3
3
3
3
3
3
3
3
3
3
3
3
3
3
3
3
3
3
3
3
3
3
3
3
3
3
2.99999
2.99997
2.99999
3
3
3
3
3
3
3
3
3
3
3
3
3
3
3
3
2.99996
2.99996
2.99999
3
3
3
3
3
3
3
3
3
3
3
3
3
3
3
3
2.99998
2.99997
2.99999
3
3
3
3
3
3
3
3
3
3
3
3
3
3
3
3
3
3
3
3
3
3
3
3
3
3
3
3
3
3
3
3
3
3
3
3
3
3
3
3
3
3
3
3
3
3
3
3
3
3
3
3
3
3
3
3
3
3
3
3
3
3
3
3
3
3
3
3
3
3
3
3
3
3
3
3
3
3
3
3
3
3
3
3
3
3
3
3
3
3
3
3
3
3
3
3
3
3
3
3
3
3
3
3
3
3
3
3
3
3
3
3
3
3
3
3
3
3
3
3
3
3
3
3
3
3
3
3
3
3
3
3
3
3
3
3
3
3
3
3
3
3
3
3
3
3
3
3
3
3
3
3
3
3
3
3
3
3
3
3
3
3
3
3
3
3
3
3
3
3
3
3
3
3
3
3
3
3
3
3
3
3
3
3
3
3
3
3
3
3
3
3
3
3
3
3
3
3
3
3
3
3
3
3
3
3
3
3
3
3
3
3
3
3
3
3
3
3
3
3
3
3
3
3
3
3
3
3
3
3
3
3
3
3
3
3
3
3
3
3
3
3
3
3
3
3
3
3
3
3
3
3
3
3
3
3
3
3
3
3
3
3
3
3
3
3
3
3
3
3
3
3
3
3
3
3
3
3
3
3
3
3
3
3
3
3
3
3
3
3
3
3
3
3
3
3
3
3
3
3
3
3
3
3
3
)
;

boundaryField
{
    leftWall
    {
        type            calculated;
        value           nonuniform List<scalar> 
50
(
2
2
2
2
2
2
2
2
0.466302
2.89288e-08
3.45947e-09
1.03314e-09
1.21308e-09
1.22218e-09
1.04996e-08
0.813634
2.41769
2.56414
2.06861
1.91682
1.81698
1.28687
1.20575
1.20605
1.20572
1.78577
2.95423
2.99986
3
3
3
2.99998
2.99992
2.99996
3
3
3
3
3
3
3
3
3
3
3
3
3
3
3
3
)
;
    }
    rightWall
    {
        type            calculated;
        value           nonuniform List<scalar> 
50
(
1.02102
0.484619
0.474382
0.673323
1.23582
1.33491
1.20275
0.946167
0.943245
0.97604
1.01715
1.02565
1.89131
2.89283
2.9853
2.99961
2.99953
2.99922
2.99821
2.99863
3
3
3
2.99938
2.99696
2.9985
2.99999
2.99999
3
3
3
3
3
3
3
3
3
3
3
3
3
3
3
3
3
3
3
3
3
3
)
;
    }
    lowerWall
    {
        type            calculated;
        value           nonuniform List<scalar> 
62
(
2
2
2
2
2
2
2
2
2
2
2
2
2
2
2
2
2
2
2
2
2
1.99997
1.99993
1.99993
1.99993
2
1.99999
1.99997
1.61966
0.292391
0.157109
1.33009
1.55538
1.76291
1.94151
1.42541
1.39454
0.99533
1.03429
1.04641
1.16185
1.43071
1.67306
1.42541
1.39069
1.18463
1.17457
1.17601
1.17735
1.17167
1.25168
1.61083
1.85854
1.89727
1.90297
1.89199
1.87349
1.89417
1.97227
1.95613
1.35502
1.02102
)
;
    }
    atmosphere
    {
        type            calculated;
        value           nonuniform List<scalar> 
46
(
3
3
3
3
3
3
3
3
3
3
3
3
3
3
3
3
3
3
3
3
3
3
3
3
3
3
3
3
3
3
3
3
3
3
3
3
3
3
3
3
3
3
3
3
3
3
)
;
    }
    defaultFaces
    {
        type            empty;
    }
}


// ************************************************************************* //
