/*--------------------------------*- C++ -*----------------------------------*\
| =========                 |                                                 |
| \\      /  F ield         | OpenFOAM: The Open Source CFD Toolbox           |
|  \\    /   O peration     | Version:  2312                                  |
|   \\  /    A nd           | Website:  www.openfoam.com                      |
|    \\/     M anipulation  |                                                 |
\*---------------------------------------------------------------------------*/
FoamFile
{
    version     2.0;
    format      ascii;
    arch        "LSB;label=32;scalar=64";
    class       volScalarField;
    location    "0.95";
    object      alpha.water;
}
// * * * * * * * * * * * * * * * * * * * * * * * * * * * * * * * * * * * * * //

dimensions      [0 0 0 0 0 0 0];

internalField   nonuniform List<scalar> 
2268
(
3.68255e-11
2.82501e-11
2.44379e-11
2.29798e-11
2.22957e-11
2.20381e-11
2.17156e-11
2.09055e-11
1.95809e-11
1.77763e-11
1.63298e-11
1.62039e-11
1.65895e-11
1.82739e-11
2.2106e-11
2.87058e-11
4.18183e-11
6.55121e-11
1.03921e-10
1.64472e-10
2.45599e-10
3.35003e-10
3.94673e-10
2.51931e-11
2.31607e-11
2.45555e-11
2.80316e-11
3.32567e-11
3.83834e-11
4.28109e-11
4.57483e-11
4.69535e-11
4.6047e-11
4.40989e-11
4.35728e-11
4.48012e-11
4.87285e-11
5.69786e-11
7.54817e-11
1.20399e-10
2.34323e-10
4.30894e-10
7.95702e-10
1.21287e-09
1.46615e-09
1.10631e-09
2.15409e-11
2.12269e-11
2.35801e-11
2.69318e-11
3.14035e-11
3.906e-11
4.55495e-11
5.01177e-11
5.57986e-11
5.94592e-11
6.19611e-11
6.23512e-11
6.37383e-11
6.8049e-11
7.78188e-11
9.86294e-11
1.62621e-10
3.65239e-10
8.6752e-10
1.84923e-09
2.85513e-09
3.16019e-09
2.87386e-09
1.23512e-11
1.26957e-11
1.57368e-11
2.30163e-11
5.33417e-11
8.94881e-11
1.00903e-10
1.0108e-10
9.94724e-11
1.05083e-10
1.19899e-10
1.20168e-10
1.28907e-10
1.33548e-10
1.51381e-10
1.74632e-10
2.36824e-10
3.32118e-10
6.16124e-10
1.59037e-09
2.22495e-09
2.46276e-09
2.51457e-09
6.74658e-12
9.22056e-12
3.32167e-11
1.69917e-10
5.05977e-11
4.99257e-11
1.73873e-10
2.11701e-10
1.95451e-10
1.69956e-10
2.85508e-10
3.2006e-10
2.05884e-10
2.38051e-10
1.7899e-10
1.74873e-10
1.75011e-10
1.7506e-10
2.02006e-10
1.55877e-09
3.11839e-11
3.08904e-11
3.1184e-11
6.56198e-12
1.91583e-11
2.31881e-10
2.25625e-09
0.00231588
0.0601435
0.165004
0.227204
0.237519
0.221442
0.195365
0.174222
0.15916
0.152612
0.154497
0.167724
0.192361
0.222481
0.244964
0.24706
0.227798
0.204113
0.190343
1.15321e-11
2.34432e-10
3.14734e-09
0.0709907
0.455613
0.784407
0.914576
0.951845
0.955995
0.946429
0.928943
0.911275
0.895903
0.888137
0.889702
0.902041
0.921693
0.941495
0.954883
0.955606
0.942282
0.910749
0.848328
2.10221e-09
0.0531188
0.322191
0.81513
0.999817
1
0.999999
0.999998
0.999995
0.999991
0.999982
0.999965
0.999969
0.999952
0.999922
0.999734
0.999611
0.999482
0.999405
0.999345
0.999237
0.992242
0.901833
0.00134985
0.0128477
0.0024163
0.0024163
0.00241627
0.00241628
0.0075524
0.0492365
0.0586825
0.0443309
0.0306966
0.0288404
0.0150766
0.0142947
0.012216
0.0111611
0.011467
0.0512605
0.213546
0.0156135
0.102141
0.0609547
0.0587192
0.104223
0.249976
0.369641
0.447859
0.43094
0.40019
0.357359
0.210703
0.039825
0.0400092
0.0528187
0.0327312
0.0204192
0.132924
0.623372
0.0860834
0.0821292
0.252642
0.437634
0.683537
0.795876
0.81661
0.816567
0.816327
0.81354
0.805607
0.691548
0.31793
0.182473
0.117117
0.0453919
0.0326306
0.296337
0.73513
0.0860059
0.0628828
0.262772
0.720421
0.912494
0.859367
0.611763
0.354535
0.334542
0.681489
0.891798
0.891797
0.684771
0.17053
0.065499
0.0389599
0.0719232
0.357123
0.629162
0.0858757
0.171292
0.697214
0.859197
0.660556
0.165074
0.0819708
0.0819823
0.135102
0.543082
0.891797
0.882087
0.274055
0.00171362
0.00851976
0.0131903
0.167586
0.590657
0.11815
0.110878
0.275824
0.78118
0.613797
0.295369
0.220763
0.321292
0.190964
0.105011
0.376868
0.833728
0.517139
0.0247332
0.00171362
0.00171362
0.0926925
0.363375
0.604169
0.0188639
0.112962
0.296737
0.798212
0.623576
0.391954
0.684328
0.610997
0.223696
0.00887508
0.23557
0.316803
0.0744394
0.00171362
0.00171361
0.0163768
0.253754
0.448421
0.608683
0.0243536
0.114503
0.331308
0.832487
0.824856
0.846368
0.898542
0.677411
0.0150857
3.13887e-06
0.0190961
0.0996178
0.0184236
0.0017554
0.0138215
0.103462
0.347213
0.672162
0.663162
0.0619322
0.766849
0.864206
0.962989
1
1
1
1
1
1
0.999999
0.999998
0.999995
0.999995
0.999995
0.999995
0.999832
0.99983
0.999828
0.969957
0.869106
0.728195
0.600842
0.30069
1
1
1
1
1
1
1
1
1
1
1
1
0.988984
0.98556
0.995138
0.9992
0.96621
0.793446
0.386654
0.12238
0.043279
0.0382441
0.0302753
1
1
1
1
1
1
1
1
1
0.999998
0.976794
0.960841
0.890151
0.826861
0.876646
0.928323
0.35629
-9.64505e-45
4.00332e-29
3.60446e-20
-2.50894e-20
2.75948e-21
0.00048401
1
1
1
1
1
0.999965
0.999603
0.999955
0.994624
0.958174
0.789182
0.731161
0.726264
0.353614
0.108324
0.00704163
0.00655454
-7.31583e-14
4.84823e-09
9.1762e-11
-1.53135e-14
4.67951e-07
1.6188e-05
1
1
1
1
1
0.99888
0.9829
0.999606
0.859377
0.627381
0.557685
0.356179
0.0561459
2.07624e-12
1.02427e-19
2.07624e-12
7.80195e-21
9.40001e-11
3.1675e-09
1.40283e-09
-1.18257e-12
8.9065e-10
0.000406988
1
0.999999
0.99999
1
1
0.986738
0.723345
0.499491
0.501867
0.373486
0.14013
1.60756e-16
2.40366e-12
2.35432e-08
1.8872e-07
2.60919e-07
6.38269e-08
2.17388e-08
9.00583e-10
8.95238e-10
8.9065e-10
2.04765e-07
3.59881e-05
1
1
0.999999
0.99204
0.761449
0.483205
0.186267
0.196667
0.328685
0.109613
2.04977e-05
3.85214e-31
4.07798e-25
1.03657e-07
4.09943e-07
4.07549e-07
3.6893e-07
3.02328e-08
9.10424e-10
1.12402e-09
5.2011e-09
9.26454e-08
1.81475e-07
0.728789
0.849121
0.892474
0.698139
0.354599
0.161311
0.0126223
0.00758505
0.0354374
0.00603766
4.28983e-06
-7.96658e-22
1.64804e-26
3.99252e-08
1.33919e-07
1.5848e-07
1.06074e-07
1.87249e-08
9.20041e-10
1.03318e-09
9.90166e-10
1.27037e-09
1.11502e-12
0.189343
0.258126
0.309839
0.113366
0.0626143
-9.88278e-20
5.57106e-21
2.31609e-20
6.2372e-06
7.10206e-06
4.10371e-06
9.55363e-18
1.73255e-09
1.0258e-08
6.64261e-09
3.49764e-08
8.93484e-08
5.02897e-08
9.81189e-10
9.83955e-10
6.25134e-09
9.62115e-09
4.74716e-09
0.0391139
0.0258849
0.00124294
1.59042e-19
5.89632e-20
-5.89178e-21
2.1283e-37
7.11788e-23
4.09901e-06
2.41296e-06
1.16528e-06
4.914e-18
5.56098e-09
8.45763e-09
-2.23542e-22
1.18472e-25
3.85021e-08
2.12917e-07
2.54475e-07
1.3614e-07
1.37629e-07
1.20408e-07
3.11684e-08
-2.01025e-15
-1.51835e-12
-5.99169e-10
-2.86367e-16
2.10083e-05
8.52228e-05
7.96027e-05
0.000127172
7.49127e-05
5.71748e-06
-2.3003e-24
6.5387e-09
1.44961e-08
8.88055e-09
1.27053e-17
-1.64657e-27
1.83674e-14
9.94735e-08
7.18205e-07
8.33957e-07
8.17184e-07
4.09661e-07
3.11549e-07
8.92415e-09
2.10283e-09
7.92026e-07
1.09206e-05
6.02912e-05
0.000184719
0.000386441
0.000389085
0.000349672
8.49639e-06
-4.84666e-27
2.83231e-09
5.84835e-08
1.34411e-07
1.22755e-06
3.20938e-06
3.42314e-06
3.21462e-06
3.66564e-06
2.85519e-06
3.23709e-08
4.16215e-08
7.95084e-07
4.40373e-08
2.77756e-07
4.73495e-07
1.38755e-06
6.13521e-06
0.000157336
0.000387067
0.000373111
0.000170128
8.08351e-06
-5.04018e-11
3.04327e-11
6.55716e-08
2.60509e-07
4.12382e-06
4.86117e-06
4.84409e-06
4.83945e-06
1.42143e-06
3.92908e-07
1.88237e-08
2.45926e-09
2.3344e-09
5.70488e-08
8.73188e-07
1.23633e-06
2.38603e-07
1.48876e-07
1.49797e-05
4.13629e-05
3.42692e-05
1.48356e-06
1.34421e-06
6.10331e-08
3.0775e-08
5.59385e-08
1.416e-07
1.87395e-06
3.15573e-06
2.76274e-06
1.03482e-06
9.08669e-08
1.26149e-08
5.33799e-09
3.90051e-09
2.66904e-09
3.83382e-08
6.69617e-07
1.24187e-06
8.36149e-07
5.46455e-09
5.2057e-09
6.52299e-08
1.61674e-07
1.92005e-07
2.98577e-07
3.48208e-07
3.42798e-07
1.81272e-07
1.89384e-07
1.19827e-07
7.98516e-08
5.31517e-08
3.79974e-08
2.44487e-08
1.41578e-08
7.46611e-09
4.95873e-09
3.63825e-09
3.72338e-08
6.71126e-07
6.93088e-07
4.96102e-07
2.41833e-08
8.59225e-09
4.80852e-08
8.11663e-08
1.21562e-07
2.09069e-07
3.41757e-07
2.17839e-07
1.64631e-07
1.47979e-07
4.31184e-08
2.71722e-08
2.57893e-08
1.65153e-08
9.31219e-09
4.66194e-09
2.29794e-09
1.26969e-09
1.08694e-09
2.3733e-05
1.87474e-06
3.93891e-07
5.25071e-08
5.1372e-08
2.48957e-08
1.98283e-08
2.54685e-08
3.85498e-08
4.32467e-08
6.54781e-08
3.67712e-08
2.9397e-08
2.29212e-08
1.79155e-08
1.36019e-08
8.3894e-09
3.89452e-09
1.82173e-09
7.81172e-10
3.37e-10
2.48353e-10
2.69641e-10
6.47984e-05
4.22288e-06
8.19345e-07
1.66169e-07
5.18304e-08
2.58234e-08
1.50099e-08
8.30376e-09
7.41947e-09
5.30063e-09
3.41974e-09
2.606e-09
2.37988e-09
3.81503e-09
3.77971e-09
2.626e-09
1.14782e-09
5.48736e-10
2.81995e-10
1.77644e-10
1.03231e-10
7.38432e-11
8.9956e-11
6.46419e-05
6.91254e-06
4.71633e-06
4.04524e-06
1.14092e-07
2.11168e-08
1.5692e-08
4.97659e-09
1.00522e-09
8.49223e-10
6.8037e-10
5.44871e-10
5.30936e-10
6.34723e-10
4.97868e-10
2.9695e-10
1.71474e-10
1.12108e-10
8.19003e-11
4.83405e-11
2.39757e-11
2.397e-11
2.70946e-11
4.70035e-05
9.17287e-06
8.51832e-06
4.11459e-06
1.26975e-07
2.82247e-08
9.10478e-09
2.48285e-09
9.85537e-10
3.66162e-10
2.73772e-10
2.18867e-10
1.67244e-10
1.22852e-10
8.94449e-11
5.8864e-11
4.31598e-11
3.42465e-11
2.16247e-11
9.92073e-12
6.70748e-12
6.81301e-12
7.46832e-12
1.01373e-06
2.54699e-06
2.20485e-06
8.45041e-07
9.37444e-08
1.88151e-08
3.33873e-09
1.79347e-09
6.17806e-10
1.52805e-10
1.08459e-10
9.37704e-11
6.62859e-11
4.27006e-11
2.69973e-11
1.77945e-11
1.33133e-11
9.21072e-12
4.57736e-12
1.81086e-12
1.52514e-12
1.71844e-12
1.64666e-12
5.62413e-08
6.06057e-07
5.55104e-07
1.65592e-07
3.09743e-08
7.29337e-09
1.52786e-09
6.85345e-10
1.96351e-10
8.04022e-11
6.29198e-11
4.62866e-11
2.95017e-11
1.73223e-11
1.00422e-11
6.20886e-12
4.24443e-12
2.14771e-12
7.54743e-13
3.45682e-13
3.50653e-13
3.51278e-13
3.74809e-13
1.25032e-08
9.74433e-08
8.0778e-08
1.85388e-08
8.22957e-09
2.03933e-09
6.80134e-10
3.25904e-10
1.56715e-10
8.8393e-11
5.45297e-11
3.15177e-11
1.68921e-11
8.51096e-12
4.24274e-12
2.3009e-12
1.25479e-12
4.32433e-13
1.06539e-13
6.51164e-14
6.76609e-14
7.30445e-14
7.07063e-14
2.57936e-09
2.91985e-09
1.92677e-09
4.21009e-09
3.58523e-09
8.6031e-10
4.85783e-10
3.20959e-10
1.79173e-10
9.73236e-11
4.89949e-11
2.33287e-11
1.04811e-11
4.48532e-12
1.90248e-12
8.84091e-13
3.57496e-13
7.27854e-14
1.36031e-14
1.13207e-14
1.25012e-14
1.21039e-14
1.05559e-14
2.68085e-09
1.22225e-07
8.93503e-08
5.08234e-08
1.75726e-09
5.25538e-10
4.43461e-10
2.94415e-10
1.65565e-10
8.10565e-11
3.61393e-11
1.50029e-11
5.86951e-12
2.18931e-12
8.05948e-13
3.22723e-13
9.33962e-14
1.00162e-14
1.88752e-15
1.8684e-15
1.93671e-15
1.79839e-15
1.44629e-15
3.98302e-07
4.62305e-07
4.81942e-07
6.30252e-08
6.58628e-10
4.69694e-10
3.85282e-10
2.40531e-10
1.22147e-10
5.41033e-11
2.16904e-11
8.07052e-12
2.82725e-12
9.42217e-13
3.08638e-13
1.10178e-13
1.93251e-14
1.10055e-15
2.73424e-16
2.83718e-16
2.88525e-16
2.39951e-16
1.81315e-16
5.8315e-07
5.86753e-07
3.07456e-07
1.53321e-08
5.14521e-10
5.11837e-10
3.28217e-10
1.67259e-10
7.40475e-11
2.94102e-11
1.07028e-11
3.62681e-12
1.15667e-12
3.50563e-13
1.04632e-13
3.30759e-14
3.07992e-15
1.14455e-16
4.14267e-17
4.18491e-17
3.87824e-17
2.84643e-17
1.87252e-17
4.97153e-07
1.82285e-07
7.35084e-09
9.73578e-10
6.91227e-10
4.3552e-10
2.16792e-10
9.38141e-11
3.67997e-11
1.32783e-11
4.4464e-12
1.39249e-12
4.10515e-13
1.14834e-13
3.17294e-14
8.42906e-15
4.78736e-16
1.1774e-17
5.93511e-18
5.44208e-18
4.6346e-18
3.11254e-18
1.80718e-18
1.36872e-07
5.12134e-10
5.12194e-10
6.57491e-10
4.77257e-10
2.48779e-10
1.08686e-10
4.24259e-11
1.52134e-11
5.06984e-12
1.58044e-12
4.62417e-13
1.2706e-13
3.30216e-14
8.56171e-15
1.77405e-15
5.50788e-17
1.3009e-18
8.3042e-19
6.76077e-19
5.14317e-19
2.78541e-19
1.54898e-19
5.86148e-10
5.87811e-10
5.12697e-10
4.19932e-10
2.40263e-10
1.10557e-10
4.43347e-11
1.6089e-11
5.37945e-12
1.6788e-12
4.91767e-13
1.35166e-13
3.47696e-14
8.45494e-15
2.09276e-15
2.73445e-16
4.15023e-18
1.61913e-19
1.05406e-19
7.83976e-20
4.9582e-20
2.47586e-20
1.19195e-20
7.54149e-10
6.05868e-10
3.59997e-10
2.08053e-10
9.88186e-11
4.15779e-11
1.55918e-11
5.30718e-12
1.66626e-12
4.88464e-13
1.34599e-13
3.48163e-14
8.42025e-15
1.9321e-15
4.52895e-16
2.33521e-17
2.88962e-19
1.95961e-20
1.30058e-20
8.84195e-21
4.6833e-21
1.78767e-21
9.36302e-22
5.30901e-10
3.54926e-10
1.7626e-10
8.36648e-11
3.55458e-11
1.37846e-11
4.83928e-12
1.54588e-12
4.56848e-13
1.26093e-13
3.26469e-14
7.9384e-15
1.8097e-15
3.95684e-16
7.98254e-17
2.51578e-18
2.20423e-20
2.42872e-21
1.47025e-21
8.78149e-22
3.99431e-22
1.44957e-22
6.76515e-23
2.4703e-10
1.46618e-10
6.63986e-11
2.82589e-11
1.11262e-11
4.01966e-12
1.32684e-12
3.99195e-13
1.1138e-13
2.90499e-14
7.09109e-15
1.62135e-15
3.48942e-16
7.30082e-17
1.12726e-17
1.99009e-19
1.72385e-21
2.62566e-22
1.69601e-22
8.36806e-23
3.17439e-23
8.04944e-24
4.77385e-24
7.48332e-11
4.71089e-11
2.05284e-11
8.19017e-12
3.0315e-12
1.03103e-12
3.2192e-13
9.17834e-14
2.42999e-14
6.02346e-15
1.38354e-15
2.9562e-16
5.96775e-17
1.20187e-17
1.01478e-18
1.03873e-20
1.5313e-22
2.66392e-23
1.65737e-23
7.30692e-24
2.26738e-24
6.66087e-25
3.422e-25
2.11928e-11
1.26068e-11
5.4043e-12
2.05869e-12
7.2291e-13
2.34076e-13
6.89474e-14
1.86142e-14
4.69629e-15
1.1079e-15
2.40038e-16
4.83638e-17
9.26998e-18
1.72558e-18
6.22758e-20
6.04458e-22
1.35276e-23
2.60236e-24
1.53917e-24
6.17896e-25
1.68282e-25
3.61828e-26
2.33261e-26
3.35368e-12
2.86792e-12
1.2324e-12
4.52316e-13
1.51473e-13
4.69113e-14
1.3164e-14
3.387e-15
7.97723e-16
1.80084e-16
3.74563e-17
7.16262e-18
1.33187e-18
2.07981e-19
4.53861e-21
4.13665e-23
1.07239e-24
3.1333e-25
1.41487e-25
4.92532e-26
1.1792e-26
2.66662e-27
1.77088e-27
7.14538e-13
5.73445e-13
2.46771e-13
8.77869e-14
2.82115e-14
8.31701e-15
2.22675e-15
5.50168e-16
1.23777e-16
2.64914e-17
5.35385e-18
9.94121e-19
1.81324e-19
1.92842e-20
2.65367e-22
3.12599e-24
8.70028e-26
2.86459e-26
1.1459e-26
3.62154e-27
8.12706e-28
1.7219e-28
1.38475e-28
7.24684e-14
1.02348e-13
4.41901e-14
1.53134e-14
4.75304e-15
1.32173e-15
3.38662e-16
8.10916e-17
1.78474e-17
3.68548e-18
7.20385e-19
1.30391e-19
2.28491e-20
1.12704e-21
1.4269e-23
2.57622e-25
7.0015e-27
2.39794e-27
9.16236e-28
2.58361e-28
5.19158e-29
1.13753e-29
1.10324e-29
1.74142e-14
1.67943e-14
7.24246e-15
2.4528e-15
7.37941e-16
1.93673e-16
4.80471e-17
1.12018e-17
2.42632e-18
4.88564e-19
9.16969e-20
1.60862e-20
2.48462e-21
7.26327e-23
9.062e-25
2.11381e-26
1.28511e-27
2.0798e-28
6.93444e-29
1.7145e-29
3.694e-30
8.18236e-31
9.09496e-31
2.3697e-15
2.6307e-15
1.12626e-15
3.73074e-16
1.08855e-16
2.72267e-17
6.41137e-18
1.47236e-18
3.13684e-19
6.13812e-20
1.10211e-20
1.86408e-21
2.28083e-22
4.59098e-24
6.75495e-26
1.73906e-27
1.23988e-28
1.69762e-29
4.93412e-30
1.10024e-30
2.57328e-31
6.16715e-32
7.81647e-32
3.71653e-16
3.5474e-16
1.49065e-16
4.8033e-17
1.37351e-17
3.43295e-18
8.11767e-19
1.86029e-19
3.87065e-20
7.29787e-21
1.24957e-21
2.02541e-22
1.59138e-23
2.75526e-25
5.49922e-27
1.36957e-28
9.86468e-30
1.25966e-30
3.29021e-31
6.78424e-32
1.97084e-32
4.46018e-33
7.13831e-33
4.55128e-17
4.40992e-17
1.81037e-17
5.65277e-18
1.606e-18
4.28415e-19
1.01475e-19
2.27344e-20
4.56179e-21
8.21697e-22
1.33617e-22
2.00091e-23
9.58766e-25
1.74675e-26
4.55237e-28
1.01083e-29
6.65948e-31
8.47953e-32
2.06002e-32
4.15423e-33
1.58324e-33
3.25577e-34
6.98201e-34
0.108771
0.0336277
0.030366
0.0648506
0.0199009
0.0203958
0.112778
0.549394
0.055077
0.189988
0.191046
0.391063
4.70745e-05
0.0555628
0.171578
0.190007
0.00450966
0.0099916
0.0113778
0.0118224
7.91579e-05
4.12626e-10
6.42147e-16
2.63612e-11
2.93227e-09
3.7744e-09
6.58847e-09
8.76153e-09
9.14982e-13
1.15882e-08
9.53997e-08
1.37032e-07
2.87714e-09
2.79218e-09
2.83849e-09
3.0324e-09
1.9683e-08
1.28919e-08
1.6424e-08
2.34212e-08
4.42636e-07
2.38101e-07
1.82765e-07
1.06005e-07
1.45673e-06
1.45413e-06
1.21485e-06
5.20898e-07
2.3443e-09
2.354e-09
2.26531e-09
2.48215e-07
2.49931e-09
2.49181e-09
2.40299e-09
2.34357e-09
3.2748e-09
2.9639e-09
2.68998e-09
2.48196e-09
9.80923e-10
9.31839e-10
9.36808e-10
1.02048e-09
2.87991e-10
3.38471e-10
3.81115e-10
4.08858e-10
9.6872e-11
1.3445e-10
1.75676e-10
1.88274e-10
2.87788e-11
3.41745e-11
4.61224e-11
4.86192e-11
7.72666e-12
7.85433e-12
8.26844e-12
8.92857e-12
1.53072e-12
1.39404e-12
1.40604e-12
1.27879e-12
3.68208e-13
3.19926e-13
2.63114e-13
2.29043e-13
6.09273e-14
5.09332e-14
4.32052e-14
4.037e-14
9.33892e-15
8.00723e-15
7.54553e-15
7.41435e-15
1.28016e-15
1.12579e-15
1.0342e-15
1.04226e-15
1.48505e-16
1.2886e-16
1.2575e-16
1.33253e-16
1.50947e-17
1.31719e-17
1.31365e-17
1.49729e-17
1.42287e-18
1.27442e-18
1.39876e-18
1.77506e-18
1.19423e-19
1.1578e-19
1.46272e-19
2.05851e-19
1.04488e-20
1.11448e-20
1.68748e-20
2.43623e-20
8.42304e-22
1.04041e-21
1.75201e-21
2.66973e-21
7.07704e-23
1.04587e-22
1.89424e-22
2.83564e-22
5.52682e-24
9.98829e-24
1.78603e-23
3.14444e-23
4.77924e-25
9.55182e-25
1.51253e-24
2.21004e-24
3.80119e-26
8.6593e-26
1.30712e-25
1.55225e-25
3.60792e-27
7.93892e-27
9.24896e-27
9.2008e-27
3.34433e-28
5.88639e-28
5.6173e-28
4.68995e-28
2.90061e-29
3.91467e-29
3.06425e-29
2.1391e-29
2.26035e-30
2.34631e-30
1.4196e-30
1.10062e-30
1.76435e-31
1.42965e-31
6.86471e-32
1.64009e-31
1.37328e-32
7.79061e-33
1.22403e-32
1.41658e-31
1.09088e-33
1.28083e-33
2.39827e-32
4.35007e-31
0.312137
0.808869
0.966775
0.963922
0.972396
0.961024
0.491465
2.94281e-06
2.97675e-06
2.14564e-06
0.000615996
0.00932753
0.0212544
0.0284173
0.139975
0.362551
0.784702
0.775654
0.0636131
0.783254
0.971121
0.972122
0.972425
0.972359
0.896118
0.381571
0.00923849
2.99298e-06
0.000989861
0.00496456
0.0049036
0.063981
0.3679
0.504783
0.711201
0.858796
0.855477
0.0303966
0.714179
0.842982
0.832816
0.793451
0.749199
0.62837
0.428716
0.0636955
0.00477592
0.00069417
0.000512875
0.0281736
0.133063
0.615026
0.802806
0.858802
0.858802
0.525775
0.00343462
0.24055
0.247376
0.196163
0.123975
0.0870487
0.108966
0.235811
0.257663
0.18526
0.0270712
2.04606e-05
0.000422809
0.000349489
0.155291
0.697689
0.858802
0.788746
0.15039
6.71753e-09
0.00868017
0.00209254
3.03805e-12
1.32151e-15
9.05506e-16
1.32145e-15
0.011597
0.110947
0.16818
0.16761
0.150749
0.129902
0.1505
0.230092
0.481968
0.714655
0.315775
0.0123827
6.68934e-09
8.71346e-07
2.88261e-08
2.53798e-07
4.15806e-07
1.67108e-07
1.93296e-10
1.12761e-11
3.06663e-11
2.66913e-09
3.06428e-09
0.00409519
0.200659
0.385804
0.414753
0.397455
0.152224
0.00638638
2.38828e-10
6.66248e-09
8.78269e-09
1.92915e-07
3.00698e-06
4.83356e-06
6.51619e-06
2.82685e-06
6.24514e-07
2.99918e-08
2.2886e-06
1.68411e-05
0.000127312
-6.48078e-07
9.60089e-21
0.000246568
0.0130518
7.05461e-10
1.70833e-10
2.3616e-10
9.05082e-09
1.34925e-07
1.61278e-07
2.28894e-06
9.46808e-06
9.41786e-06
8.74076e-06
4.89349e-07
2.26006e-08
9.57575e-09
0.000101162
0.00244268
0.00419362
0.00418323
0.00131125
1.15291e-08
2.20337e-08
2.58952e-10
6.61225e-10
1.18895e-08
3.804e-09
4.89633e-09
4.93275e-09
3.14034e-06
9.41636e-06
8.18592e-06
3.9564e-06
2.14042e-05
8.63065e-05
0.000523583
0.00201902
0.00285389
0.00290703
0.00202738
0.00048265
5.13355e-07
7.92847e-10
6.33528e-10
1.1336e-09
3.25688e-08
6.01186e-08
6.15137e-08
5.32672e-07
1.72107e-06
4.30379e-06
8.06352e-06
0.000119498
0.000215208
0.000165603
1.38282e-11
1.41559e-11
1.38282e-11
1.41604e-11
1.38282e-11
1.13917e-10
1.82562e-10
1.63318e-10
6.27566e-11
7.5251e-08
2.06272e-07
3.94812e-07
2.50672e-06
5.24902e-06
1.09931e-05
2.07215e-05
1.15118e-05
1.67207e-11
1.46694e-11
1.44931e-11
1.45969e-11
1.81885e-11
2.26226e-11
2.53259e-11
2.1078e-11
1.43518e-11
6.20167e-12
3.00716e-12
1.53248e-07
1.70346e-07
2.40187e-07
2.3516e-07
2.48017e-07
3.06347e-09
4.0195e-09
5.26726e-11
5.8294e-11
5.86828e-11
6.11751e-11
7.30756e-11
8.0869e-11
6.24104e-11
3.38607e-11
2.01536e-11
1.24439e-11
5.56231e-12
2.44638e-12
6.82012e-07
4.08829e-07
1.78225e-07
2.18808e-07
2.20109e-07
3.78325e-08
4.46967e-08
8.10961e-09
3.38991e-10
2.12247e-10
3.16925e-10
2.56748e-10
1.96639e-10
1.28494e-10
6.63986e-11
3.23073e-11
1.9541e-11
9.24746e-12
2.75671e-12
2.80352e-09
2.70868e-09
2.72833e-09
3.47816e-08
1.58961e-07
2.46488e-07
2.47192e-07
1.3889e-07
1.98226e-08
2.19669e-10
6.68049e-10
6.29029e-10
4.76895e-10
2.99715e-10
1.32667e-10
4.24941e-11
2.11789e-11
1.01422e-11
2.844e-12
2.0149e-09
2.67108e-09
4.38733e-09
4.39826e-09
4.42573e-09
5.64465e-08
1.43608e-07
1.59423e-07
6.88978e-08
2.72691e-09
1.04751e-09
9.63088e-10
7.62726e-10
4.76748e-10
2.05391e-10
6.31023e-11
2.23862e-11
1.0176e-11
2.79923e-12
1.15288e-09
1.97513e-09
4.81022e-09
5.35189e-09
4.83473e-09
4.59604e-09
1.61198e-09
3.33464e-09
1.50205e-08
1.1527e-08
1.7904e-09
1.11131e-09
8.37579e-10
5.42454e-10
2.55751e-10
7.96622e-11
2.20778e-11
8.26092e-12
2.55145e-12
5.53189e-10
8.06198e-10
1.4712e-09
4.27332e-09
5.1553e-09
4.69166e-09
1.77957e-09
4.76821e-10
4.19734e-10
4.20453e-10
7.98883e-10
8.75239e-10
6.78701e-10
4.63401e-10
2.34603e-10
8.20541e-11
1.83492e-11
6.68661e-12
2.33462e-12
2.10539e-10
4.20977e-10
6.59851e-10
1.21311e-09
2.18026e-09
2.7781e-09
2.86709e-09
1.98736e-09
9.46392e-10
4.53908e-10
3.75916e-10
3.26492e-10
2.96658e-10
2.14712e-10
1.47041e-10
4.61899e-11
1.04443e-11
5.76779e-12
2.20029e-12
6.15111e-11
7.52867e-11
1.71801e-10
3.46414e-10
5.4557e-10
5.64538e-10
4.14931e-10
2.44352e-10
2.13941e-10
2.23366e-10
2.38514e-10
2.22601e-10
1.86343e-10
1.32381e-10
7.74144e-11
1.59554e-11
5.8217e-12
5.03226e-12
2.03661e-12
9.02161e-12
1.32824e-11
3.6125e-11
8.68053e-11
1.31595e-10
1.20805e-10
9.34387e-11
8.41184e-11
9.73154e-11
1.24637e-10
1.30242e-10
1.12539e-10
9.02864e-11
5.39811e-11
1.91054e-11
3.78801e-12
4.73369e-12
4.5188e-12
1.83239e-12
1.33453e-12
4.22619e-12
8.77358e-12
2.09139e-11
2.59223e-11
2.59345e-11
2.85147e-11
3.74406e-11
5.74113e-11
5.75572e-11
5.0812e-11
4.20711e-11
2.98113e-11
1.43937e-11
2.09755e-12
2.11345e-12
4.21818e-12
4.11555e-12
1.73002e-12
3.9061e-13
1.48069e-12
2.96413e-12
4.55861e-12
6.28359e-12
8.22687e-12
1.3267e-11
2.32528e-11
2.83097e-11
2.56983e-11
2.21418e-11
1.51238e-11
4.40592e-12
4.33137e-13
3.88608e-13
1.6467e-12
3.94637e-12
3.77403e-12
1.70313e-12
8.54355e-14
3.7825e-13
6.80685e-13
8.4452e-13
1.46948e-12
3.10366e-12
6.68996e-12
8.88311e-12
8.61614e-12
7.47732e-12
5.14884e-12
1.55384e-12
2.23313e-13
1.91138e-14
2.72159e-13
1.53048e-12
3.56733e-12
3.40758e-12
1.61671e-12
2.51392e-14
8.12314e-14
1.28788e-13
2.37297e-13
5.39484e-13
1.45283e-12
2.39501e-12
2.52515e-12
2.22166e-12
1.54989e-12
4.40069e-13
4.71102e-14
1.56541e-15
3.72062e-15
2.79116e-13
1.45454e-12
3.01878e-12
2.94382e-12
1.48509e-12
4.06607e-15
2.03725e-14
3.97919e-14
9.15339e-14
2.25917e-13
4.39409e-13
4.92372e-13
4.78164e-13
3.43831e-13
1.06841e-13
1.24884e-14
4.32729e-16
1.06696e-16
2.20554e-15
2.61394e-13
1.24694e-12
2.43654e-12
2.47458e-12
1.31169e-12
5.95778e-16
4.84393e-15
1.3944e-14
4.48797e-14
6.74823e-14
8.05403e-14
7.76876e-14
6.09133e-14
2.22898e-14
3.05112e-15
1.02778e-16
4.10806e-17
8.31979e-17
1.68784e-15
1.81256e-13
8.08776e-13
1.95381e-12
2.03942e-12
1.12409e-12
6.89734e-17
9.52105e-16
4.59714e-15
7.78315e-15
1.00034e-14
1.04199e-14
9.24368e-15
5.92173e-15
1.34994e-15
9.26242e-17
4.1156e-18
4.12784e-17
2.89325e-16
1.8941e-15
1.04462e-13
5.35319e-13
1.46942e-12
1.72855e-12
8.53108e-13
1.53906e-17
2.49513e-16
5.91661e-16
9.349e-16
1.073e-15
1.02538e-15
7.59982e-16
3.47569e-16
4.5584e-17
1.29098e-18
3.14201e-18
7.6715e-17
7.25082e-16
2.84397e-15
5.33806e-14
4.3996e-13
1.19063e-12
1.37016e-12
6.65e-13
3.37118e-18
2.83814e-17
5.96535e-17
8.10631e-17
8.64239e-17
7.47753e-17
4.26317e-17
1.02252e-17
6.64265e-19
1.21916e-19
4.07378e-18
1.05621e-16
1.04034e-15
6.27784e-15
5.83456e-14
3.57926e-13
9.296e-13
9.13465e-13
3.929e-13
6.03016e-19
2.49859e-18
4.6133e-18
5.81943e-18
5.60989e-18
3.9046e-18
1.42122e-18
1.2868e-19
8.45599e-21
9.81169e-20
4.75369e-18
1.22503e-16
1.30778e-15
1.0293e-14
9.29259e-14
3.97152e-13
7.57483e-13
6.61468e-13
1.91158e-13
4.86942e-20
1.6668e-19
2.7629e-19
2.94163e-19
2.44443e-19
1.24511e-19
2.59549e-20
1.14527e-21
4.81e-21
9.26231e-20
3.46988e-18
1.28223e-16
1.38332e-15
1.12307e-14
1.0216e-13
3.94924e-13
5.92301e-13
4.55594e-13
1.07107e-13
3.6247e-21
1.00724e-20
1.36564e-20
1.33122e-20
8.59213e-21
2.43057e-21
1.88634e-22
2.35582e-22
4.10596e-21
6.78753e-20
1.23892e-18
5.53983e-17
7.85114e-16
9.61688e-15
7.81322e-14
2.81872e-13
3.59614e-13
2.50562e-13
4.7265e-14
2.14976e-22
4.72634e-22
5.60814e-22
4.6072e-22
1.96946e-22
2.51229e-23
1.43122e-23
1.50929e-22
2.43367e-21
3.55505e-20
5.00493e-19
1.11451e-17
2.26772e-16
5.19455e-15
3.61215e-14
1.10176e-13
1.55444e-13
9.03335e-14
1.63998e-14
1.19284e-23
2.05836e-23
2.03882e-23
1.2399e-23
2.61545e-24
1.62144e-24
8.30873e-24
7.50235e-23
9.62086e-22
1.12331e-20
1.0049e-19
2.62966e-18
1.05207e-16
1.6606e-15
1.2486e-14
2.76889e-14
3.08734e-14
2.29852e-14
5.12311e-15
4.90289e-25
6.58125e-25
5.49056e-25
1.92093e-25
1.95875e-25
1.0296e-24
6.49714e-24
4.15552e-23
2.85169e-22
2.39926e-21
1.87551e-20
4.72102e-19
3.44162e-17
3.50754e-16
3.09995e-15
5.41615e-15
6.05831e-15
4.25565e-15
1.39725e-15
1.99895e-26
2.16955e-26
1.2183e-26
1.76638e-26
1.26715e-25
8.86025e-25
5.51982e-24
3.00574e-23
1.41365e-22
6.41694e-22
3.45237e-21
3.44114e-20
5.57685e-18
4.45704e-17
3.21785e-16
9.54759e-16
1.17724e-15
8.8219e-16
2.86873e-16
7.05155e-28
6.20698e-28
1.32057e-27
1.10123e-26
1.00473e-25
7.00311e-25
4.32183e-24
2.20429e-23
9.03647e-23
3.12328e-22
9.71396e-22
4.05337e-21
1.31149e-19
4.01281e-18
3.5466e-17
1.15772e-16
1.10366e-16
8.60288e-17
6.17833e-17
2.80798e-29
7.6499e-29
7.65516e-28
8.22557e-27
7.62574e-26
5.28528e-25
3.08049e-24
1.44004e-23
5.27439e-23
1.55769e-22
3.91317e-22
9.02318e-22
5.35889e-21
1.11553e-19
3.67498e-18
6.75723e-18
7.72464e-18
7.92745e-18
1.44688e-17
3.70789e-30
4.06588e-29
5.76116e-28
6.62175e-27
5.85537e-26
3.74648e-25
1.88007e-24
7.64475e-24
2.47939e-23
6.33116e-23
1.44239e-22
2.43878e-22
3.9654e-22
1.02687e-21
1.10354e-19
2.39579e-19
2.19411e-19
9.59387e-19
5.40865e-18
1.84306e-30
3.45052e-29
5.80396e-28
6.28444e-27
4.60776e-26
2.47242e-25
1.01942e-24
3.32916e-24
8.75476e-24
1.91535e-23
3.52067e-23
5.15064e-23
8.55118e-23
6.62346e-23
8.20635e-23
1.78798e-21
2.85581e-20
3.53865e-19
2.21611e-18
2.38537e-30
4.81182e-29
6.40559e-28
5.11977e-27
2.78704e-26
1.13769e-25
3.67032e-25
9.60838e-25
2.15073e-24
4.57912e-24
7.88878e-24
1.16586e-23
1.5653e-23
1.15713e-23
1.68713e-23
4.67954e-22
8.58192e-21
9.85105e-20
4.05059e-19
4.97144e-30
5.32159e-29
3.57851e-28
1.67886e-27
6.01753e-27
1.79485e-26
4.81903e-26
1.08729e-25
2.10608e-25
3.68292e-25
5.3422e-25
7.16548e-25
9.71522e-25
4.11805e-25
5.3356e-25
2.37718e-23
5.18204e-22
3.65967e-21
2.97313e-21
)
;

boundaryField
{
    leftWall
    {
        type            zeroGradient;
    }
    rightWall
    {
        type            zeroGradient;
    }
    lowerWall
    {
        type            zeroGradient;
    }
    atmosphere
    {
        type            inletOutlet;
        inletValue      uniform 0;
        value           nonuniform List<scalar> 
46
(
4.55128e-17
4.40992e-17
1.81037e-17
5.65277e-18
1.606e-18
4.28415e-19
1.01475e-19
2.27344e-20
4.56179e-21
8.21697e-22
1.33617e-22
2.00091e-23
9.58766e-25
1.74675e-26
4.55237e-28
1.01083e-29
6.65948e-31
8.47953e-32
2.06002e-32
4.15423e-33
1.58324e-33
3.25577e-34
6.98201e-34
0
0
0
0
0
0
0
0
0
0
0
0
0
0
0
0
0
0
0
0
0
0
0
)
;
    }
    defaultFaces
    {
        type            empty;
    }
}


// ************************************************************************* //
