/*--------------------------------*- C++ -*----------------------------------*\
| =========                 |                                                 |
| \\      /  F ield         | OpenFOAM: The Open Source CFD Toolbox           |
|  \\    /   O peration     | Version:  2312                                  |
|   \\  /    A nd           | Website:  www.openfoam.com                      |
|    \\/     M anipulation  |                                                 |
\*---------------------------------------------------------------------------*/
FoamFile
{
    version     2.0;
    format      ascii;
    arch        "LSB;label=32;scalar=64";
    class       volScalarField;
    location    "4.9";
    object      alpha.air;
}
// * * * * * * * * * * * * * * * * * * * * * * * * * * * * * * * * * * * * * //

dimensions      [0 0 0 0 0 0 0];

internalField   nonuniform List<scalar> 
2268
(
9.89591e-10
1.00053e-09
9.56763e-10
9.41132e-10
9.47241e-10
9.46592e-10
7.06086e-10
3.84359e-10
1.81939e-10
1.1212e-10
1.05476e-10
1.05553e-10
1.0838e-10
1.16378e-10
1.31574e-10
1.60413e-10
1.98348e-10
2.33282e-10
2.39215e-10
2.37452e-10
2.75926e-08
3.64393e-07
5.39913e-07
1.30258e-09
1.4348e-09
1.56801e-09
2.21376e-09
3.67026e-09
5.64027e-09
5.87465e-09
2.7521e-09
1.17348e-09
8.70204e-10
6.55388e-10
5.18672e-10
5.02567e-10
5.12825e-10
5.30477e-10
6.07466e-10
8.14652e-10
1.13923e-09
1.15162e-09
2.3184e-10
1.52084e-07
7.12249e-07
7.12558e-07
2.96483e-09
2.80491e-09
3.04211e-09
2.15189e-09
3.56576e-09
1.59638e-08
1.75838e-08
1.651e-08
1.2003e-08
2.83293e-09
3.68094e-09
1.84429e-09
1.56083e-09
1.31545e-09
1.04664e-09
9.71725e-10
1.88372e-09
2.94096e-09
2.99579e-09
8.9615e-09
8.37032e-08
2.34159e-07
3.45308e-07
2.12882e-09
2.13405e-09
2.12979e-09
2.13789e-09
2.1376e-09
2.14743e-09
2.14707e-09
2.15719e-09
3.98372e-08
8.09703e-09
1.66416e-09
1.46868e-09
1.99325e-09
5.6871e-09
1.83819e-08
2.77136e-08
1.87155e-09
1.10262e-08
3.03095e-09
7.86959e-09
2.48154e-08
3.1701e-08
2.97526e-08
0.000387667
0.000419867
0.000561442
0.000710565
0.000668237
0.000443451
0.000166226
9.89205e-06
4.85156e-08
7.38706e-06
1.16836e-05
1.52517e-05
2.52445e-06
6.00383e-09
4.70982e-07
2.19131e-06
3.34689e-06
1.12277e-08
3.79793e-09
4.41098e-09
6.63757e-09
1.27443e-08
3.16385e-08
0.00131855
0.00132746
0.00132748
0.00132746
0.00132748
0.00132746
0.00132747
0.000875765
4.6594e-05
1.04516e-05
0.000114897
0.000163143
0.00014388
5.43142e-05
6.50008e-06
1.01261e-05
7.19405e-05
0.000461297
0.00148689
0.00199618
0.00223423
0.00230589
0.00187915
0.000364532
0.000396182
0.000448951
0.000786582
0.001217
0.00129339
0.00122976
0.00111511
0.000751302
4.36608e-05
6.37539e-05
0.000163145
0.000163144
0.000136098
2.5227e-05
5.60095e-06
4.02795e-05
0.00377346
0.00920451
0.0103569
0.010359
0.0103569
0.0102514
0.000252095
0.000252116
0.000252117
0.000252081
0.000253843
0.000253549
0.000236655
0.000221169
0.000220818
0.000105081
6.18325e-05
8.59208e-05
8.30571e-05
4.95507e-05
2.74012e-05
3.75315e-05
0.000219143
0.00475204
0.00714988
0.00737276
0.00979711
0.0101416
0.00903283
0.000231501
0.000466888
0.00510138
0.0075953
0.00787059
0.00695343
0.00499788
0.00240857
0.00217814
0.00217641
0.00212879
0.00212787
0.00212784
0.00219299
0.00241401
0.0033808
0.00448777
0.00509406
0.00532103
0.000223227
0.000223408
0.000222896
0.00149191
0.00212322
0.00425296
0.00832285
0.00730205
0.00470316
0.00285584
0.00214877
0.00215146
0.00212679
0.00212691
0.00212642
0.00369595
0.00738883
0.00739302
0.00726041
0.00524324
0.00629749
0.00972637
0.00984506
0.00710379
0.00513822
0.00863231
0.0156193
0.0138743
0.00786326
0.00392631
0.0028985
0.00243528
0.00359238
0.011618
0.0209229
0.0175292
0.0100799
0.015699
0.0118812
0.0137164
0.0233427
0.0233428
0.0233423
0.0206043
0.0179486
0.018285
0.0182799
0.0169439
0.0160983
0.0173955
0.0200922
0.0213786
0.0249244
0.0392099
0.0195742
0.0430996
0.0179935
0.00652087
0.00644516
0.0180516
0.0166012
0.0104219
0.0385179
0.0391372
0.00837817
0.00840699
0.00926242
0.0168873
0.0107687
0.00998508
0.0173388
0.0395396
0.0391906
0.0669112
0.0710527
0.0249182
0.00486704
0.00393859
0.00391332
0.00177847
0.00177845
0.0135145
0.0392933
0.0108135
0.0103195
0.0207102
0.0776402
0.0161136
0.0124591
0.0258228
0.0395257
0.0396704
0.0812734
0.083432
0.0381604
0.0053425
0.00272133
0.00178148
0.00177742
0.00177847
0.00292196
0.0245093
0.0122193
0.0111019
0.0700686
0.0939715
0.0609907
0.016304
0.0110705
0.0325206
0.00496391
0.00892839
0.082457
0.0611921
0.00507761
0.00507081
0.00360936
0.0017774
0.00177798
0.00177861
0.00373111
0.00322515
0.00320552
0.0752513
0.0939801
0.089111
0.00743194
0.00402413
0.0222828
0.00291913
0.0030851
0.0786398
0.0786662
0.0113236
0.000993757
0.000273993
0.000294835
0.00019531
0.000195522
0.000195327
0.000195539
0.00019935
0.000225241
0.000214754
0.000135645
0.000133929
0.000113173
3.44142e-05
2.51905e-05
6.73863e-05
6.97222e-05
7.10876e-05
0.000482716
0.000575588
0.00236017
0.00243277
0.0398141
0.0213862
0.00481022
0.00278589
0.00808569
0.0253959
0.0268277
0.0152053
0.00413132
0.000269575
0.000248183
0.000241055
0.000243913
0.000244334
0.000232694
2.51942e-05
2.64389e-05
0.00277606
0.00376742
0.00451038
0.00821775
0.0179483
0.0180784
0.0398141
0.0398141
0.0183635
0.00281997
0.0241048
0.0755788
0.0755874
0.0755877
0.0575212
0.0415041
0.0360561
0.0264554
0.00772481
0.00245051
0.0138423
0.0436999
0.0504351
0.0483501
0.0324733
0.0357711
0.0401672
0.0401672
0.0401672
0.0375899
0.0145619
0.0135934
0.012818
0.0257346
0.0755725
0.0756173
0.0755634
0.0755874
0.0755521
0.0619568
0.0380764
0.0568915
0.067104
0.067123
0.067107
0.041135
0.0175875
0.0321188
0.0358073
0.0364311
0.0213207
0.00386067
0.000721398
0.000728952
0.0343887
0.0345352
0.0315708
0.0725003
0.0755653
0.047118
0.0236905
0.0343558
0.0220081
0.0192912
0.0379014
0.0399103
0.0264389
0.0120756
0.00149287
0.00353185
0.0112252
0.00613785
0.000343502
0.000289279
0.000235489
0.000713943
0.00307809
0.00777664
0.0148995
0.00108067
0.0219011
0.0391669
0.00616559
0.000190525
0.000227036
0.000189804
0.000222233
0.000908106
0.000571509
0.00015484
6.68861e-05
2.36807e-05
2.48171e-05
2.36796e-05
0.0179204
0.0206846
0.00904224
0.00908083
0.000702424
0.000343583
0.000198384
0.000227852
0.000228958
0.000189965
0.000132951
6.12666e-05
6.76565e-05
9.19383e-05
9.21782e-05
6.73078e-05
0.000116436
8.47099e-05
6.70498e-05
3.7078e-05
0.028465
0.208222
0.485974
0.614509
0.640702
0.598553
0.591847
0.000147961
1.2748e-05
1.36523e-05
7.01324e-05
4.91832e-05
6.63217e-05
0.00011298
4.2765e-05
6.97315e-06
2.75865e-13
-6.97556e-12
9.53361e-25
1.72332e-22
0.0042739
0.0844983
0.299424
0.632076
0.878814
0.972628
0.993763
0.996844
0.998356
0.998969
1.18786e-05
1.37271e-05
1.27279e-05
1.45988e-05
1.36414e-05
1.57778e-05
1.41768e-05
1.55918e-05
7.43358e-05
1.00353e-10
-1.7301e-21
0.01191
0.0924625
0.327488
0.668317
0.931349
0.993759
0.98649
0.99287
0.999808
1
0.999913
0.999835
0.331533
0.30017
0.250376
0.210534
0.18762
0.162223
0.137301
0.123968
0.119134
0.122336
0.145242
0.233479
0.542215
0.932019
0.983192
0.98345
0.997808
0.999679
0.999999
1
1
0.999999
0.999995
0.991618
0.980945
0.962993
0.944029
0.928768
0.910152
0.889484
0.87721
0.873463
0.878116
0.910708
0.987817
0.993559
0.98826
0.987897
0.99403
0.999939
0.999992
0.999994
0.999996
0.999999
0.999999
0.999982
0.999969
0.999997
1
1
1
1
1
1
1
0.998893
0.997051
0.997755
0.999826
0.99993
0.999989
0.999997
0.999996
0.999982
0.999947
0.999957
0.999997
0.999994
0.99996
1
1
1
1
1
1
0.999999
0.999999
0.999999
0.999999
0.999999
0.999993
0.999991
0.999997
0.999997
0.999997
0.999981
0.999948
0.999939
0.999959
0.999988
0.999967
0.999959
1
1
1
1
1
0.999999
0.999999
0.999999
0.999998
0.999998
0.999998
0.999998
0.999998
0.999997
0.999994
0.999955
0.999945
0.999941
0.99995
0.999983
0.999996
0.999974
0.999959
0.999999
1
1
1
0.999999
0.999999
0.999999
0.999999
0.999998
0.999998
0.999997
0.999977
0.999954
0.999952
0.999952
0.999971
0.999961
0.999963
0.999982
0.999998
0.999999
0.999994
0.999982
0.999999
1
1
1
1
0.999999
0.999999
0.999999
0.999998
0.999998
0.999985
0.999955
0.999955
0.99996
0.999982
0.999998
0.999999
0.999996
0.999998
1
1
1
0.999999
1
1
1
1
1
1
1
0.999999
0.999998
0.999997
0.999995
0.999994
0.999992
0.999998
1
1
1
1
1
1
1
1
0.999999
1
1
1
1
1
1
1
1
1
1
1
1
1
1
1
1
1
1
1
1
1
1
0.999999
1
1
1
1
1
1
1
1
1
1
1
1
1
1
1
1
1
1
1
1
1
1
0.999999
1
1
1
1
1
1
1
1
1
1
1
1
1
1
1
1
1
1
1
1
1
1
0.999999
1
1
1
1
1
1
1
1
1
1
1
1
1
1
1
1
1
1
1
1
1
1
1
1
1
1
1
1
1
1
1
1
1
1
1
1
1
1
1
1
1
1
1
1
1
1
1
1
1
1
1
1
1
1
1
1
1
1
1
1
1
1
1
1
1
1
1
1
1
1
1
1
1
1
1
1
1
1
1
1
1
1
1
1
1
1
1
1
1
1
1
1
1
1
1
1
1
1
1
1
1
1
1
1
1
1
1
1
1
1
1
1
1
1
1
1
1
1
1
1
1
1
1
1
1
1
1
1
1
1
1
1
1
1
1
1
1
1
1
1
1
1
1
1
1
1
1
1
1
1
1
1
1
1
1
1
1
1
1
1
1
1
1
1
1
1
1
1
1
1
1
1
1
1
1
1
1
1
1
1
1
1
1
1
1
1
1
1
1
1
1
1
1
1
1
1
1
1
1
1
1
1
1
1
1
1
1
1
1
1
1
1
1
1
1
1
1
1
1
1
1
1
1
1
1
1
1
1
1
1
1
1
1
1
0.999999
0.999999
1
1
1
1
1
1
1
1
1
1
1
1
1
1
1
1
1
1
1
1
1
0.999999
0.999999
1
1
1
1
1
1
1
1
1
1
1
1
1
1
1
1
1
1
1
1
0.999999
0.999999
1
1
1
1
1
1
1
1
1
1
1
1
1
1
1
1
1
1
1
1
1
0.999999
0.999999
1
1
1
1
1
1
1
1
1
1
1
1
1
1
1
1
1
1
1
1
0.999999
0.999999
1
1
1
1
1
1
1
1
1
1
1
1
1
1
1
1
1
1
1
1
1
0.999999
0.999999
1
1
1
1
1
1
1
1
1
1
1
1
1
1
1
1
1
1
1
1
1
0.999999
0.999999
1
1
1
1
1
1
1
1
1
1
1
1
1
1
1
1
1
1
1
1
1
0.999999
0.999999
1
1
1
1
1
1
1
1
1
1
1
1
1
1
1
1
1
1
1
1
1
0.999999
0.999999
1
1
1
1
1
1
1
1
1
1
1
1
1
1
1
1
1
1
1
1
1
0.999999
0.999999
1
1
1
1
1
1
1
1
1
1
1
1
1
1
1
1
1
1
1
1
1
0.999999
1
1
1
1
1
1
1
1
1
1
1
1
1
1
1
1
1
1
1
1
1
1
1
1
1
1
1
1
1
1
1
1
1
1
1
1
1
1
1
1
1
1
1
0.005354
0.0137972
0.0192775
0.0138948
0.0136352
0.0309852
0.0362697
0.0362631
0.0215902
3.15115e-05
0.00182439
0.000752933
0.000330735
3.15298e-05
3.15149e-05
3.15333e-05
0.000237797
0.000528962
0.000661517
0.000763899
0.0106947
0.0110706
0.0117997
0.0116484
0.624644
0.625404
0.609111
0.588645
0.998924
0.998821
0.998744
0.99829
0.999961
0.999999
1
0.999926
0.999992
0.999997
1
1
0.999959
0.999963
0.999991
1
0.999959
0.999959
0.999959
0.999976
0.999959
0.999959
0.99996
0.999968
0.999959
0.99996
0.999966
0.999967
0.999983
0.999985
0.999972
0.999945
0.999999
0.999998
0.999954
0.999943
0.999999
0.999999
0.999976
0.999944
0.999999
0.999999
0.999996
0.999987
0.999999
0.999999
1
1
0.999999
0.999999
1
1
1
1
1
1
1
1
1
1
1
1
1
1
1
1
1
1
1
1
1
1
1
1
1
1
1
1
1
1
1
1
1
1
1
1
1
1
1
1
1
1
1
1
1
1
1
1
1
1
1
1
1
1
1
1
1
1
1
1
1
1
1
1
1
1
1
1
1
1
1
1
1
1
1
1
1
1
1
1
1
1
1
1
1
1
1
1
1
1
0.0102553
0.00649774
0.00297444
0.00177739
0.00543379
0.00477497
0.00320648
0.00320648
0.00320607
0.0445782
0.0939945
0.092682
0.0105479
0.00379955
0.00339519
0.00337571
0.0234677
0.0395695
0.0650603
0.018466
0.00655197
0.00990429
0.0780051
0.0848271
0.0484402
0.0249251
0.0287694
0.0343443
0.0572089
0.0940044
0.0939945
0.0768377
0.0116345
0.0163147
0.0304425
0.029437
0.0249092
0.026115
0.000749093
0.0480979
0.164508
0.192215
0.188881
0.129017
0.11901
0.0209689
0.00795289
0.030471
0.0940195
0.0939794
0.0335823
0.00548711
0.00712382
0.00823271
0.00876981
0.0296438
0.0363764
0.00405607
0.136447
0.193266
0.169235
0.0159219
0.00043239
0.000433022
0.00183756
0.00144437
0.00372126
0.0728412
0.0939234
0.00136374
0.000185386
0.00015072
0.00013934
0.00342725
0.00676781
0.00723496
0.000771497
0.060295
0.193147
0.0391613
0.000435461
0.00043361
0.000487434
0.000823407
0.00144866
0.00146684
0.0104936
0.0414406
0.00473696
0.00285479
0.000229321
3.0385e-06
2.87341e-06
2.87341e-06
2.87341e-06
0.0130915
0.0479725
0.158759
0.157892
0.0360721
0.000433413
0.00160907
0.00131149
0.00132979
0.00137718
0.0016594
0.00213055
0.00196473
0.002243
0.00164523
0.000818301
0.000494802
0.00053806
2.87341e-06
0.541809
0.434946
0.341789
0.306654
0.277841
0.252666
0.127045
0.043246
0.0184012
0.020282
0.0017638
0.000531328
0.000989498
0.00319057
0.00778908
0.0107865
0.0261461
0.0635926
0.131886
0.998214
0.999408
0.993496
0.960351
0.910611
0.837061
0.774242
0.71546
0.676023
0.66188
0.573676
0.507279
0.506851
0.531953
0.567579
0.579564
0.661665
0.740413
0.712012
0.999855
0.999831
0.999975
0.999959
0.999733
0.998925
0.998358
0.998528
0.999307
0.99933
0.99932
0.999286
0.998815
0.998225
0.996291
0.993674
0.99427
0.994227
0.993249
1
1
0.999995
0.999993
0.999993
0.99999
0.999926
0.999948
0.999992
0.999999
0.999996
0.999999
0.999997
0.999914
0.999815
0.99996
0.99996
0.99996
0.99996
1
1
1
1
0.999998
0.999853
0.999766
0.999773
0.999945
0.999994
0.999996
0.999999
0.999987
0.999963
0.999922
0.999937
0.999957
0.999933
0.999926
1
1
1
1
0.999959
0.999762
0.999762
0.999762
0.999948
0.999994
0.999999
1
0.999989
0.999876
0.999875
0.999875
0.999878
0.999878
0.999882
0.999999
1
1
1
0.999917
0.999762
0.999764
0.999763
0.999926
0.999997
1
0.999953
0.999986
0.999937
0.999875
0.999875
0.999905
0.999933
0.999937
0.999947
0.999977
1
1
0.999899
0.999773
0.999856
0.999782
0.999925
0.999995
0.999857
0.99985
0.999915
0.999982
0.999933
0.999899
0.99996
0.999991
0.999992
0.999943
0.999944
0.999986
0.999975
0.999845
0.999961
0.999967
0.999945
0.999877
0.999886
0.999892
0.999926
0.999943
0.999982
0.999939
0.999954
0.999953
0.999977
0.999991
0.999955
0.999962
0.99993
0.99988
0.999883
0.999983
0.999967
0.999979
0.999982
0.999977
0.999978
0.999978
0.99997
0.999963
0.999957
0.999951
0.999951
0.999973
0.999987
0.999996
0.999995
0.999913
0.99988
0.99996
0.999979
0.999953
0.999953
0.999964
0.999977
0.999952
0.999951
0.999952
0.999954
0.999954
0.999951
0.999963
0.999992
0.999987
0.999999
0.999998
0.999972
0.999926
0.99999
0.999993
0.999978
0.999952
0.999952
0.999952
0.999951
0.999951
0.999962
0.999985
0.999992
0.999989
0.999977
0.999993
0.999994
1
0.999998
0.999996
0.999997
0.999997
0.999993
0.999991
0.999992
0.999994
0.999988
0.999973
0.999958
0.999963
0.999974
0.999995
0.999998
0.999978
0.999986
0.999998
1
0.999999
0.999999
1
0.999995
0.999986
0.999986
0.999986
0.999987
0.999998
1
0.999986
0.999964
0.999963
0.999964
0.999996
0.99998
0.999979
0.999998
1
1
1
1
0.999999
0.999998
0.999994
0.999994
0.999997
1
1
1
0.999998
0.999969
0.999965
0.999988
0.999993
0.99998
0.999998
1
1
1
1
1
1
1
1
1
1
1
1
1
1
0.999997
0.999998
0.999997
0.999993
0.999998
1
1
1
1
1
1
1
1
1
1
1
1
1
1
1
1
0.999998
0.999997
0.999999
1
1
1
1
1
1
1
1
1
1
1
1
1
1
1
1
0.999998
0.999996
0.999999
1
1
1
1
1
1
1
1
1
1
1
1
1
1
1
1
0.999999
0.999999
1
1
1
1
1
1
1
1
1
1
1
1
1
1
1
1
1
1
1
1
1
1
1
1
1
1
1
1
1
1
1
1
1
1
1
1
1
1
1
1
1
1
1
1
1
1
1
1
1
1
1
1
1
1
1
1
1
1
1
1
1
1
1
1
1
1
1
1
1
1
1
1
1
1
1
1
1
1
1
1
1
1
1
1
1
1
1
1
1
1
1
1
1
1
1
1
1
1
1
1
1
1
1
1
1
1
1
1
1
1
1
1
1
1
1
1
1
1
1
1
1
1
1
1
1
1
1
1
1
1
1
1
1
1
1
1
1
1
1
1
1
1
1
1
1
1
1
1
1
1
1
1
1
1
1
1
1
1
1
1
1
1
1
1
1
0.999999
1
1
1
1
1
0.999998
1
1
1
1
1
1
1
1
1
1
1
1
0.999996
0.999994
1
1
1
1
0.999997
1
1
1
1
1
1
1
1
1
1
1
1
0.999997
0.999993
0.999994
1
1
1
0.999997
1
1
1
1
1
1
1
1
1
1
1
1
0.999999
0.999995
0.999994
0.999996
1
1
0.999998
1
1
1
1
1
1
1
1
1
1
1
1
1
0.999999
0.999994
0.999994
0.999998
0.999999
0.999998
1
1
1
1
1
1
1
1
1
1
1
1
1
1
0.999998
0.999994
0.999994
0.999999
0.999998
1
1
1
1
1
1
1
1
1
1
1
1
1
1
1
0.999998
0.999997
0.999997
0.999998
1
1
1
1
1
1
1
1
1
1
1
1
1
1
1
1
0.999999
0.999999
1
1
1
1
1
1
1
1
1
1
1
1
1
1
1
1
1
1
1
1
)
;

boundaryField
{
    leftWall
    {
        type            alphaContactAngle;
        thetaProperties 
6
(
(galistan air) 90 0 0 0
(oil galistan) 90 0 0 0
(water oil) 90 0 0 0
(water air) 90 0 0 0
(oil air) 90 0 0 0
(water galistan) 90 0 0 0
);
        value           nonuniform List<scalar> 
50
(
9.89591e-10
1.30258e-09
2.96483e-09
2.12882e-09
0.000387667
0.00131855
0.000364532
0.000252095
0.0113236
0.0398141
0.0398141
0.0375899
0.000721398
0.000713943
0.000702424
0.000147961
1.18786e-05
0.331533
0.991618
0.999969
1
1
0.999999
0.999999
1
1
1
1
1
1
1
1
1
1
1
1
1
1
1
1
1
1
1
1
1
1
1
1
1
1
)
;
    }
    rightWall
    {
        type            alphaContactAngle;
        thetaProperties 
6
(
(galistan air) 90 0 0 0
(oil galistan) 90 0 0 0
(water oil) 90 0 0 0
(water air) 90 0 0 0
(oil air) 90 0 0 0
(water galistan) 90 0 0 0
);
        value           nonuniform List<scalar> 
50
(
0.00532103
0.00726041
0.015699
0.0179935
0.0249182
0.0381604
0.0611921
0.0786662
0.0650603
0.026115
0.0363764
0.00723496
2.87341e-06
2.87341e-06
0.131886
0.712012
0.993249
0.99996
0.999926
0.999882
0.999937
0.999992
0.999991
0.999987
0.999987
0.999994
0.999998
0.999998
0.999998
0.999998
0.999999
0.999999
1
1
1
1
1
1
1
1
1
0.999998
0.999997
0.999997
0.999998
0.999998
0.999998
0.999998
1
1
)
;
    }
    lowerWall
    {
        type            alphaContactAngle;
        thetaProperties 
6
(
(galistan air) 90 0 0 0
(oil galistan) 90 0 0 0
(water oil) 90 0 0 0
(water air) 90 0 0 0
(oil air) 90 0 0 0
(water galistan) 90 0 0 0
);
        value           nonuniform List<scalar> 
62
(
9.89591e-10
1.00053e-09
9.56763e-10
9.41132e-10
9.47241e-10
9.46592e-10
7.06086e-10
3.84359e-10
1.81939e-10
1.1212e-10
1.05476e-10
1.05553e-10
1.0838e-10
1.16378e-10
1.31574e-10
1.60413e-10
1.98348e-10
2.33282e-10
2.39215e-10
2.37452e-10
2.75926e-08
3.64393e-07
5.39913e-07
5.39913e-07
7.12558e-07
3.45308e-07
2.97526e-08
3.16385e-08
0.00187915
0.0102514
0.00903283
0.005354
0.0137972
0.0192775
0.0138948
0.000231501
0.000223227
0.00524324
0.0118812
0.00652087
0.00486704
0.0053425
0.00507761
0.000231501
0.000466888
0.00510138
0.0075953
0.00787059
0.00695343
0.00499788
0.00240857
0.00217814
0.00217641
0.00212879
0.00212787
0.00212784
0.00219299
0.00241401
0.0033808
0.00448777
0.00509406
0.00532103
)
;
    }
    atmosphere
    {
        type            inletOutlet;
        inletValue      uniform 1;
        value           nonuniform List<scalar> 
46
(
1
1
1
1
1
1
1
1
1
1
1
1
1
1
1
1
1
1
1
1
1
1
1
1
1
1
1
1
1
1
1
1
1
1
1
1
1
1
1
1
1
1
1
1
1
1
)
;
    }
    defaultFaces
    {
        type            empty;
    }
}


// ************************************************************************* //
