/*--------------------------------*- C++ -*----------------------------------*\
| =========                 |                                                 |
| \\      /  F ield         | OpenFOAM: The Open Source CFD Toolbox           |
|  \\    /   O peration     | Version:  2312                                  |
|   \\  /    A nd           | Website:  www.openfoam.com                      |
|    \\/     M anipulation  |                                                 |
\*---------------------------------------------------------------------------*/
FoamFile
{
    version     2.0;
    format      ascii;
    arch        "LSB;label=32;scalar=64";
    class       volScalarField;
    location    "4.9";
    object      p;
}
// * * * * * * * * * * * * * * * * * * * * * * * * * * * * * * * * * * * * * //

dimensions      [1 -1 -2 0 0 0 0];

internalField   nonuniform List<scalar> 
2268
(
4747.15
4759.02
4782.83
4818.76
4866.37
4924.34
4990.74
5063.44
5140.12
5218.34
5295.43
5368.57
5435.23
5493.31
5541.28
5578.12
5602.9
5615.83
5618.99
5616.01
5610.31
5604.58
5600.23
3948.16
3959.86
3983.67
4019.7
4067.62
4125.99
4192.84
4266.03
4343.23
4422.05
4499.82
4573.59
4640.77
4699.22
4747.42
4784.4
4809
4821.25
4823.41
4819.38
4812.59
4805.5
4800.24
3146.43
3157.89
3181.57
3217.78
3266.31
3325.51
3393.27
3467.41
3545.66
3625.65
3704.8
3779.86
3848.09
3907.28
3955.91
3993.25
4017.56
4028.48
4028.59
4022.51
4013.65
4004.07
3997.29
2341.71
2353.08
2376.61
2413.07
2462.58
2523.06
2592.16
2667.64
2747.35
2829
2910.21
2987.27
3057.11
3117.5
3166.78
3204.73
3228.78
3237.69
3234.53
3225.37
3213.4
3199.98
3190.83
1544.95
1555.16
1576.25
1609.47
1656.23
1718.37
1789.19
1866.54
1948.32
2032.34
2116.56
2196.41
2268.17
2329.79
2377.21
2418.81
2442.94
2448.84
2440.76
2427.48
2411.34
2392.45
2379.83
1017.58
1022.53
1032.17
1047.38
1069.39
1101.99
1140.81
1186.01
1237.86
1296.42
1361.65
1428.23
1489.06
1545.75
1598.32
1637.32
1660.69
1663.93
1653.92
1637.86
1616.02
1586.33
1565.5
852.734
853.884
855.048
856.61
858.672
861.14
864.922
870.495
878.655
890.617
907.085
926.059
943.551
962.346
982.149
1001.25
1015.96
1006.8
992.254
977.147
958.152
931.88
914.405
792.649
793.932
795.112
796.668
798.542
800.008
800.906
800.163
797.057
791.097
781.696
769.236
756.036
742.974
732.587
724.18
712.151
689.285
675.762
665.9
656.62
648.556
645.839
2500.45
2521.38
2569.12
2630.14
2692.55
2743.57
2778.46
2799.8
2810.33
2810.36
2799.26
2776.77
2741.86
2691.92
2632.47
2558.15
2454.75
2357.89
2302.07
1744.7
1761.37
1805.28
1865.05
1929.37
1980.89
2015.47
2035.27
2045.06
2044.8
2033.3
2010.06
1977.04
1930.81
1878.97
1804.03
1699.53
1607.91
1563.56
1128.13
1143.24
1170.47
1208.96
1254.38
1296.48
1330.88
1354.66
1367.4
1372.76
1374.48
1371.1
1352.74
1329.17
1296.93
1223.06
1150.37
1111.1
1089.52
864.485
872.086
878.868
886.503
898.628
914.298
933.059
951.852
967.374
983.392
992.906
996.742
984.862
975.327
967.024
945.95
942.36
949.082
940.395
808.413
809.04
809.8
808.487
808.578
810.496
812.624
819.416
830.485
848.038
852.309
843.362
828.78
822.081
823.61
851.056
878.488
889.325
887.131
750.374
749.172
751.184
749.997
749.99
752.053
755.255
758.991
766.619
783.634
789.205
781.375
767.213
768.503
776.741
794.495
815.887
826.574
830.53
692.328
689.707
691.606
690.707
690.668
693.478
697.074
698.248
703.364
718.648
724.339
718.696
706.89
717.117
729.288
739.832
753.669
764.588
772.995
631.722
630.748
631.893
631.579
632.304
634.794
638.536
639.774
644.27
654.675
659.512
655.317
650.636
666.26
682.355
692.035
696.017
704.045
714.402
698.675
699.4
700.668
702.164
703.829
705.307
706.427
706.132
703.879
698.993
691.216
680.624
668.33
654.72
638.807
619.918
600.826
587.054
575.689
565.504
557.117
551.234
547.26
573.49
573.726
574.048
574.386
575.251
577.108
579.964
581.073
580.105
576.604
571.056
562.349
551.141
537.721
522.864
507.207
491.069
472.586
455.617
440.795
428.278
418.627
411.414
473.654
473.508
472.62
471.48
469.64
467.46
466.989
466.897
465.248
461.634
455.479
447.407
436.162
422.232
406.491
389.291
370.316
351.78
334.387
319.437
307.167
299.887
296.894
402.951
402.395
399.525
396.359
392.876
388.644
384.355
380.267
374.611
367.507
358.715
348.02
334.584
319.119
302.153
284.519
267.315
251.708
237.332
225.512
217.605
212.596
210.525
337.751
336.723
334.404
331.977
329.69
326.818
322.221
315.881
307.563
297.266
285.524
271.93
257.004
240.802
223.902
207.372
191.921
177.724
164.97
154.891
147.524
142.336
139.115
272.382
271.713
271.05
269.851
268.368
266.367
262.564
256.796
249.383
240.3
229.024
215.412
199.845
182.675
164.179
145.048
126.411
109.092
93.5087
82.0689
74.0879
69.0705
66.2755
207.524
207.332
207.489
207.221
206.508
205.367
202.657
198.232
192.429
184.965
175.141
162.364
146.416
127.602
106.431
83.9514
61.7848
43.0236
30.3479
22.8627
18.0963
15.3045
13.9299
142.518
142.854
143.731
144.36
144.771
144.671
143.376
140.716
136.813
131.353
123.578
111.974
95.1958
73.7325
50.0487
28.8744
14.3225
7.73751
4.16751
1.94791
0.56079
-0.0390474
-0.209385
76.8558
78.0301
79.9558
81.6496
83.0906
84.1637
84.4657
83.6572
81.7338
78.583
73.4086
64.3249
48.0155
28.0473
11.8034
3.90706
1.65421
0.645254
-0.55306
-0.955814
-1.0461
-1.06577
-1.07934
20.8966
22.3389
24.4333
26.2737
27.8332
29.3011
30.4503
30.9263
30.7529
30.0939
28.1676
23.3362
13.6006
4.19749
1.27537
0.383455
-0.65389
-1.11549
-1.20066
-1.19657
-1.2284
-1.26088
-1.29305
-1.27301
-1.01383
-0.508615
0.0731717
0.675237
1.43844
2.1522
2.52702
2.60352
2.36129
1.16614
-0.997001
-1.4011
-1.28325
-1.64258
-1.92944
-1.77918
-1.55506
-1.44168
-1.42511
-1.43149
-1.44323
-1.45885
-2.00291
-2.02418
-2.05008
-2.07452
-2.10102
-2.1311
-2.16089
-2.18925
-2.21223
-2.20649
-2.2047
-2.29893
-2.44767
-2.4775
-2.46768
-2.40776
-2.10414
-1.83424
-1.70636
-1.65125
-1.63049
-1.6257
-1.63046
-2.14015
-2.15198
-2.16957
-2.19052
-2.21488
-2.24195
-2.27096
-2.30242
-2.33879
-2.39194
-2.44611
-2.48174
-2.50806
-2.5203
-2.48912
-2.38615
-2.19444
-2.02617
-1.91601
-1.85301
-1.82003
-1.80555
-1.8027
-2.26825
-2.27567
-2.28772
-2.30372
-2.32339
-2.34592
-2.37228
-2.40306
-2.43941
-2.48314
-2.52657
-2.55727
-2.56966
-2.54614
-2.49549
-2.39912
-2.2724
-2.16354
-2.0852
-2.0326
-1.99804
-1.98001
-1.97211
-2.39207
-2.39717
-2.40562
-2.41734
-2.43213
-2.44968
-2.47042
-2.49486
-2.52304
-2.55313
-2.57958
-2.59563
-2.59598
-2.57413
-2.52691
-2.45626
-2.36811
-2.29588
-2.23828
-2.19464
-2.16398
-2.14552
-2.13548
-2.51392
-2.51759
-2.52376
-2.53224
-2.54289
-2.55579
-2.57115
-2.58907
-2.6089
-2.62833
-2.64348
-2.64993
-2.64427
-2.62344
-2.58588
-2.53429
-2.47598
-2.42474
-2.38036
-2.34454
-2.31852
-2.30131
-2.29085
-2.63476
-2.63745
-2.64204
-2.64833
-2.65617
-2.66567
-2.67679
-2.68931
-2.70232
-2.71395
-2.72163
-2.72252
-2.71414
-2.69558
-2.66635
-2.62894
-2.58802
-2.54983
-2.51542
-2.4866
-2.46474
-2.44937
-2.43935
-2.75511
-2.75712
-2.76058
-2.76536
-2.77126
-2.77824
-2.78616
-2.79458
-2.80267
-2.80904
-2.81192
-2.80952
-2.80053
-2.78432
-2.76139
-2.73343
-2.70322
-2.67391
-2.64689
-2.62366
-2.60532
-2.59175
-2.58213
-2.87505
-2.87659
-2.87926
-2.88292
-2.88735
-2.89244
-2.89792
-2.90335
-2.908
-2.91087
-2.91081
-2.90672
-2.89793
-2.88405
-2.8657
-2.84404
-2.82081
-2.79781
-2.77627
-2.75736
-2.74188
-2.72989
-2.72071
-2.99476
-2.99597
-2.99802
-3.0008
-3.00409
-3.00769
-3.01134
-3.01461
-3.01692
-3.01758
-3.01582
-3.01097
-3.00264
-2.9908
-2.97585
-2.95862
-2.94022
-2.92183
-2.9044
-2.8888
-2.87564
-2.86509
-2.85655
-3.11438
-3.11533
-3.11689
-3.11897
-3.12135
-3.12381
-3.12609
-3.12782
-3.12857
-3.12784
-3.12513
-3.12006
-3.11245
-3.10224
-3.08985
-3.07585
-3.06098
-3.04604
-3.03174
-3.01873
-3.00747
-2.99827
-2.99027
-3.234
-3.23476
-3.23595
-3.23748
-3.23914
-3.24072
-3.24199
-3.24264
-3.24235
-3.24078
-3.23761
-3.23263
-3.22576
-3.2169
-3.20651
-3.19495
-3.18274
-3.17043
-3.15856
-3.14759
-3.13787
-3.12964
-3.12265
-3.35375
-3.35435
-3.35524
-3.35634
-3.35745
-3.35838
-3.35891
-3.35882
-3.35786
-3.3558
-3.35246
-3.34769
-3.34146
-3.33382
-3.32503
-3.31537
-3.30521
-3.29495
-3.28499
-3.27567
-3.26726
-3.25996
-3.25372
-3.47367
-3.47415
-3.47483
-3.47559
-3.47628
-3.47673
-3.47674
-3.47614
-3.47476
-3.47246
-3.46911
-3.46464
-3.45904
-3.45241
-3.4449
-3.43675
-3.4282
-3.41957
-3.41114
-3.40318
-3.39589
-3.38944
-3.38386
-3.59383
-3.59422
-3.59473
-3.59525
-3.59563
-3.59572
-3.59537
-3.59444
-3.59282
-3.59042
-3.58717
-3.58304
-3.57803
-3.57224
-3.56579
-3.55884
-3.55159
-3.54427
-3.53708
-3.53024
-3.52391
-3.51822
-3.51325
-3.71426
-3.71459
-3.71497
-3.7153
-3.71546
-3.71529
-3.7147
-3.71357
-3.71184
-3.70944
-3.70635
-3.70256
-3.69809
-3.69301
-3.68743
-3.68147
-3.67528
-3.66902
-3.66286
-3.65696
-3.65145
-3.64645
-3.64202
-3.83499
-3.83526
-3.83554
-3.83575
-3.83574
-3.8354
-3.83465
-3.83341
-3.83164
-3.82931
-3.82642
-3.82296
-3.81897
-3.81451
-3.80966
-3.80451
-3.79919
-3.79382
-3.78851
-3.78341
-3.7786
-3.7742
-3.77027
-3.95601
-3.95624
-3.95645
-3.95656
-3.95643
-3.95598
-3.95513
-3.95385
-3.9521
-3.94988
-3.9472
-3.94406
-3.9405
-3.93657
-3.93233
-3.92787
-3.92328
-3.91864
-3.91406
-3.90963
-3.90544
-3.90157
-3.89809
-4.07732
-4.07754
-4.07769
-4.07771
-4.0775
-4.07697
-4.07608
-4.0748
-4.07311
-4.07102
-4.06854
-4.0657
-4.06253
-4.05906
-4.05536
-4.05148
-4.0475
-4.04349
-4.03952
-4.03567
-4.03202
-4.02862
-4.02554
-4.19902
-4.19914
-4.19922
-4.19918
-4.1989
-4.19834
-4.19744
-4.19618
-4.19457
-4.19262
-4.19035
-4.18779
-4.18496
-4.1819
-4.17865
-4.17528
-4.17182
-4.16834
-4.1649
-4.16156
-4.15837
-4.15539
-4.15267
-4.32077
-4.32092
-4.32101
-4.32094
-4.32064
-4.32005
-4.31916
-4.31793
-4.31641
-4.3146
-4.31253
-4.31023
-4.30771
-4.30501
-4.30217
-4.29922
-4.29622
-4.2932
-4.29022
-4.28732
-4.28455
-4.28194
-4.27955
-4.44282
-4.44297
-4.44306
-4.44298
-4.44269
-4.4421
-4.4412
-4.44001
-4.43857
-4.43689
-4.43502
-4.43295
-4.43071
-4.42834
-4.42585
-4.42328
-4.42067
-4.41806
-4.41549
-4.41297
-4.41057
-4.4083
-4.40621
-4.56512
-4.56528
-4.56537
-4.5653
-4.56501
-4.56442
-4.56351
-4.56235
-4.56099
-4.55945
-4.55774
-4.5559
-4.55392
-4.55183
-4.54966
-4.54743
-4.54518
-4.54292
-4.5407
-4.53854
-4.53646
-4.5345
-4.53268
-4.68764
-4.68781
-4.6879
-4.68785
-4.68755
-4.68694
-4.68603
-4.68491
-4.68362
-4.6822
-4.68067
-4.67903
-4.67729
-4.67547
-4.67358
-4.67165
-4.66971
-4.66778
-4.66587
-4.66402
-4.66224
-4.66056
-4.65899
-4.81032
-4.81049
-4.81059
-4.81055
-4.81025
-4.80962
-4.80871
-4.80762
-4.80642
-4.80512
-4.80375
-4.8023
-4.80079
-4.79921
-4.79758
-4.79593
-4.79427
-4.79263
-4.79101
-4.78944
-4.78793
-4.7865
-4.78517
-4.93309
-4.93326
-4.93337
-4.93334
-4.93303
-4.93239
-4.93149
-4.93045
-4.92933
-4.92817
-4.92696
-4.9257
-4.92439
-4.92304
-4.92166
-4.92026
-4.91886
-4.91747
-4.91612
-4.91481
-4.91355
-4.91235
-4.91124
-5.05587
-5.05605
-5.05616
-5.05613
-5.05581
-5.05518
-5.05431
-5.05334
-5.05234
-5.05132
-5.05027
-5.04919
-5.04808
-5.04695
-5.04579
-5.04462
-5.04346
-5.04232
-5.04121
-5.04013
-5.0391
-5.03812
-5.03721
-5.17859
-5.17876
-5.17888
-5.17884
-5.17852
-5.17792
-5.17713
-5.17628
-5.17541
-5.17454
-5.17366
-5.17277
-5.17185
-5.17091
-5.16997
-5.16902
-5.16808
-5.16716
-5.16627
-5.16542
-5.1646
-5.16383
-5.1631
-5.3012
-5.30134
-5.30146
-5.30142
-5.30111
-5.3006
-5.29994
-5.29924
-5.29854
-5.29784
-5.29713
-5.29641
-5.29568
-5.29493
-5.29419
-5.29345
-5.29272
-5.29201
-5.29133
-5.29068
-5.29006
-5.28948
-5.28893
-5.4237
-5.42379
-5.4239
-5.42386
-5.42358
-5.4232
-5.42273
-5.42223
-5.42172
-5.4212
-5.42066
-5.42012
-5.41956
-5.419
-5.41845
-5.4179
-5.41737
-5.41686
-5.41638
-5.41593
-5.4155
-5.4151
-5.41472
-5.54613
-5.54615
-5.54626
-5.54617
-5.54594
-5.54574
-5.54553
-5.54525
-5.54494
-5.5446
-5.54424
-5.54387
-5.54349
-5.54311
-5.54274
-5.54238
-5.54204
-5.54172
-5.54143
-5.54117
-5.54092
-5.54068
-5.54046
-5.66854
-5.66847
-5.66864
-5.66845
-5.66819
-5.66826
-5.66833
-5.66829
-5.66818
-5.66802
-5.66784
-5.66764
-5.66744
-5.66724
-5.66705
-5.66688
-5.66672
-5.66659
-5.66649
-5.66641
-5.66633
-5.66626
-5.6662
544.955
543.394
542.29
539.463
408.159
405.258
401.511
399.761
295.44
293.502
291.959
291.455
209.15
208.273
207.779
207.586
137.484
136.594
135.82
135.344
65.2494
64.9419
64.8479
64.9904
13.3575
13.1431
13.1102
13.1128
-0.362058
-0.483935
-0.578359
-0.601808
-1.1192
-1.12822
-1.13596
-1.1422
-1.30095
-1.30814
-1.31662
-1.32826
-1.46708
-1.47201
-1.47845
-1.4872
-1.6346
-1.6378
-1.64218
-1.64792
-1.80309
-1.80412
-1.80584
-1.80791
-1.96897
-1.96744
-1.9663
-1.9657
-2.13053
-2.1281
-2.12647
-2.12549
-2.28638
-2.28525
-2.28569
-2.28573
-2.43576
-2.43564
-2.43736
-2.43708
-2.57831
-2.57742
-2.57788
-2.57742
-2.71639
-2.71457
-2.71366
-2.71289
-2.85224
-2.85014
-2.84872
-2.84777
-2.98627
-2.98415
-2.9825
-2.98132
-3.11878
-3.11664
-3.11486
-3.11346
-3.25008
-3.24801
-3.2462
-3.2447
-3.38049
-3.37854
-3.37679
-3.37528
-3.51017
-3.50837
-3.50673
-3.50529
-3.63923
-3.63758
-3.63607
-3.63472
-3.76775
-3.76625
-3.76488
-3.76363
-3.89583
-3.89447
-3.89321
-3.89206
-4.02351
-4.02229
-4.02116
-4.02011
-4.15087
-4.14978
-4.14877
-4.14782
-4.27796
-4.27699
-4.27608
-4.27523
-4.40481
-4.40395
-4.40315
-4.40239
-4.53146
-4.53071
-4.53
-4.52934
-4.65794
-4.65729
-4.65667
-4.65609
-4.78427
-4.78371
-4.78319
-4.78269
-4.91048
-4.91001
-4.90957
-4.90914
-5.03658
-5.0362
-5.03583
-5.03548
-5.1626
-5.1623
-5.16201
-5.16172
-5.28856
-5.28832
-5.2881
-5.28789
-5.41446
-5.4143
-5.41414
-5.41399
-5.54031
-5.54022
-5.54012
-5.54003
-5.66616
-5.66613
-5.6661
-5.66607
533.989
537.337
538.816
538.637
540.229
542.926
546.209
548.781
554.823
560.496
565.599
564.918
567.822
584.421
601.396
606.735
609.483
611.688
619.619
399.686
406.345
410.02
412.298
415.117
418.192
421.145
423.172
429.2
437.683
444.964
444.74
450.783
467.684
486.678
485.711
487.489
487.746
494.387
291.979
294.788
297.934
301.189
304.328
306.767
309.382
313.762
317.088
329.1
340.136
337.551
341.217
348.894
359.79
362.196
365.502
371.467
378.3
207.75
208.956
212.664
216.724
220.889
224.03
227.762
234.1
239.561
246.068
252.688
253.202
255.49
256.882
259.246
261.621
264.599
270.507
277.238
135.229
137.329
140.52
146.255
152.537
158.087
163.865
170.271
176.238
180.974
183.77
186.053
188.283
189.383
190.172
189.615
189.131
191.677
198.666
66.1924
70.6221
75.2681
80.5083
87.2066
94.0309
100.895
107.811
114.622
120.387
124.261
126.336
127.321
127.676
127.347
126.599
125.773
125.793
130.267
14.3589
17.1654
21.0324
24.9508
29.449
35.6815
41.715
47.5159
53.4026
58.7733
63.3075
65.854
66.8635
66.8181
66.2003
65.3416
65.1793
65.4579
67.8347
-0.600713
-0.749434
-0.638547
0.296084
1.97854
4.48307
6.61044
8.91884
11.5264
13.8116
16.5708
18.6388
19.3532
19.534
19.5223
19.9277
20.7798
21.3995
23.047
-1.15545
-1.16341
-1.23637
-1.29625
-1.29063
-1.24162
-1.13253
-0.922023
-0.884219
-0.881091
-0.862654
-0.822075
-0.495046
-0.0173901
0.571627
1.50167
2.4918
3.25133
4.01017
-1.34818
-1.37852
-1.42768
-1.48512
-1.50811
-1.50687
-1.51713
-1.54977
-1.56804
-1.57567
-1.57579
-1.58154
-1.61889
-1.62328
-1.58332
-1.60286
-1.61544
-1.6203
-1.62705
-1.50365
-1.52981
-1.56323
-1.59869
-1.61038
-1.62971
-1.65043
-1.67882
-1.70214
-1.70989
-1.71492
-1.71609
-1.74638
-1.74744
-1.73957
-1.74103
-1.74867
-1.75873
-1.75646
-1.65894
-1.67909
-1.7058
-1.73438
-1.75643
-1.7718
-1.79139
-1.81586
-1.83439
-1.83752
-1.8406
-1.84474
-1.86109
-1.86947
-1.86865
-1.87002
-1.86862
-1.87665
-1.88006
-1.81194
-1.82845
-1.85074
-1.87317
-1.892
-1.91145
-1.9308
-1.95381
-1.96498
-1.96745
-1.96661
-1.97271
-1.98449
-1.994
-1.99604
-1.99791
-1.99865
-2.00432
-2.0075
-1.96762
-1.97972
-1.99606
-2.0116
-2.02768
-2.04968
-2.06845
-2.08953
-2.09465
-2.09559
-2.09795
-2.10508
-2.11299
-2.11903
-2.12362
-2.12576
-2.12618
-2.13027
-2.13462
-2.12881
-2.13633
-2.14358
-2.15067
-2.16377
-2.18706
-2.20316
-2.21952
-2.22627
-2.22629
-2.2327
-2.23967
-2.24315
-2.24518
-2.24967
-2.25319
-2.25434
-2.25793
-2.2613
-2.28772
-2.29235
-2.29321
-2.29393
-2.30469
-2.32238
-2.33529
-2.34759
-2.35563
-2.35866
-2.36275
-2.36622
-2.36901
-2.37221
-2.37736
-2.38148
-2.38388
-2.38761
-2.38721
-2.43597
-2.43865
-2.43991
-2.44064
-2.45089
-2.45978
-2.47019
-2.47884
-2.48525
-2.48963
-2.4929
-2.49486
-2.4971
-2.50103
-2.50661
-2.51079
-2.51209
-2.51397
-2.51083
-2.57477
-2.5764
-2.58007
-2.58457
-2.59176
-2.59676
-2.60602
-2.61301
-2.6187
-2.62323
-2.62627
-2.62772
-2.629
-2.63129
-2.63519
-2.63743
-2.63691
-2.6364
-2.6338
-2.71155
-2.71251
-2.71568
-2.72081
-2.72651
-2.73169
-2.73828
-2.74446
-2.74911
-2.75318
-2.75636
-2.7577
-2.75818
-2.75891
-2.76038
-2.76106
-2.76033
-2.75884
-2.75814
-2.8467
-2.84721
-2.84945
-2.85299
-2.85795
-2.8631
-2.86812
-2.87268
-2.87661
-2.88007
-2.88285
-2.88441
-2.88485
-2.88487
-2.88502
-2.88504
-2.88449
-2.88286
-2.88341
-2.97996
-2.97979
-2.98123
-2.98382
-2.98777
-2.99226
-2.99636
-2.99995
-3.00305
-3.00575
-3.00804
-3.00973
-3.01069
-3.01091
-3.01064
-3.00997
-3.00916
-3.00791
-3.00824
-3.11167
-3.11075
-3.1115
-3.11334
-3.11615
-3.11956
-3.12295
-3.12602
-3.12871
-3.13112
-3.13323
-3.13489
-3.13597
-3.13655
-3.13635
-3.13542
-3.13431
-3.13333
-3.13323
-3.24262
-3.24113
-3.24119
-3.24228
-3.24419
-3.24668
-3.2494
-3.25207
-3.2546
-3.2569
-3.25891
-3.26052
-3.2616
-3.26209
-3.26194
-3.26116
-3.2601
-3.25919
-3.25891
-3.37311
-3.3713
-3.37082
-3.37129
-3.37253
-3.37434
-3.37649
-3.3788
-3.38107
-3.38319
-3.38508
-3.38663
-3.3877
-3.38817
-3.38806
-3.38736
-3.38634
-3.38551
-3.38525
-3.50316
-3.50123
-3.50038
-3.5004
-3.50113
-3.5024
-3.50408
-3.50601
-3.50796
-3.50985
-3.51157
-3.51303
-3.51407
-3.51459
-3.51452
-3.5139
-3.51294
-3.51212
-3.51188
-3.63271
-3.63077
-3.62971
-3.62941
-3.62976
-3.63062
-3.63193
-3.63347
-3.6351
-3.63673
-3.63828
-3.63962
-3.64061
-3.64114
-3.64115
-3.64064
-3.63978
-3.63906
-3.63882
-3.76175
-3.75986
-3.7587
-3.75819
-3.75826
-3.75884
-3.7598
-3.76101
-3.76235
-3.76375
-3.7651
-3.76631
-3.76724
-3.76777
-3.76782
-3.7674
-3.76666
-3.76607
-3.76585
-3.89033
-3.88853
-3.88734
-3.88669
-3.88658
-3.88692
-3.8876
-3.88854
-3.88964
-3.89081
-3.89198
-3.89305
-3.89391
-3.89441
-3.89447
-3.89412
-3.89347
-3.89302
-3.89282
-4.01851
-4.01679
-4.01567
-4.01494
-4.01468
-4.01484
-4.01531
-4.01603
-4.01691
-4.01788
-4.01887
-4.0198
-4.02057
-4.02101
-4.02106
-4.02073
-4.0202
-4.01987
-4.0197
-4.14636
-4.14477
-4.14365
-4.14292
-4.14258
-4.14259
-4.1429
-4.14343
-4.14413
-4.14492
-4.14574
-4.14652
-4.1472
-4.14757
-4.14756
-4.14725
-4.14685
-4.14663
-4.14647
-4.27391
-4.27245
-4.27137
-4.27065
-4.27027
-4.27018
-4.27036
-4.27074
-4.27128
-4.27191
-4.27256
-4.27317
-4.27379
-4.27404
-4.27397
-4.27372
-4.27344
-4.27329
-4.27315
-4.40121
-4.39989
-4.39887
-4.39817
-4.39776
-4.3976
-4.39768
-4.39795
-4.39835
-4.39883
-4.39933
-4.39982
-4.40023
-4.4004
-4.40032
-4.40017
-4.39998
-4.39989
-4.39975
-4.52829
-4.5271
-4.52617
-4.5255
-4.52507
-4.52487
-4.52487
-4.52504
-4.52532
-4.52566
-4.52603
-4.52637
-4.52662
-4.52672
-4.52666
-4.5266
-4.52649
-4.52643
-4.52629
-4.65518
-4.65412
-4.65327
-4.65265
-4.65222
-4.652
-4.65194
-4.65202
-4.65221
-4.65244
-4.65267
-4.65288
-4.65301
-4.65302
-4.65302
-4.65302
-4.65298
-4.65297
-4.65283
-4.7819
-4.78097
-4.78022
-4.77964
-4.77924
-4.779
-4.7789
-4.77892
-4.77903
-4.77917
-4.77932
-4.77945
-4.77951
-4.77948
-4.77944
-4.77949
-4.77948
-4.77953
-4.77943
-4.90847
-4.90767
-4.90702
-4.90651
-4.90613
-4.90589
-4.90576
-4.90574
-4.90579
-4.90588
-4.90598
-4.90608
-4.90618
-4.90616
-4.90605
-4.90605
-4.90607
-4.90613
-4.90606
-5.03492
-5.03426
-5.0337
-5.03325
-5.03292
-5.03268
-5.03255
-5.0325
-5.03251
-5.03256
-5.03263
-5.03271
-5.03283
-5.0329
-5.03281
-5.03275
-5.03274
-5.03274
-5.03278
-5.16128
-5.16073
-5.16028
-5.1599
-5.15961
-5.1594
-5.15927
-5.1592
-5.15919
-5.15921
-5.15926
-5.15933
-5.15943
-5.15956
-5.15959
-5.15953
-5.15947
-5.15941
-5.15954
-5.28754
-5.28713
-5.28677
-5.28647
-5.28624
-5.28606
-5.28594
-5.28587
-5.28584
-5.28584
-5.28588
-5.28593
-5.28602
-5.28614
-5.28628
-5.28632
-5.28625
-5.28616
-5.28631
-5.41374
-5.41345
-5.41319
-5.41298
-5.4128
-5.41267
-5.41257
-5.41251
-5.41247
-5.41246
-5.41248
-5.41253
-5.4126
-5.41271
-5.41285
-5.41301
-5.41305
-5.41294
-5.41305
-5.53987
-5.53971
-5.53956
-5.53943
-5.53933
-5.53924
-5.53918
-5.53913
-5.5391
-5.53908
-5.53909
-5.53911
-5.53917
-5.53927
-5.53941
-5.53958
-5.53966
-5.53963
-5.53966
-5.66603
-5.66595
-5.6659
-5.66586
-5.66583
-5.66581
-5.66578
-5.66576
-5.66574
-5.66572
-5.6657
-5.66569
-5.66574
-5.66584
-5.66598
-5.66613
-5.6662
-5.66623
-5.66626
)
;

boundaryField
{
    leftWall
    {
        type            calculated;
        value           nonuniform List<scalar> 
50
(
4747.15
3948.16
3146.43
2341.71
1544.95
1017.58
852.734
792.649
698.675
573.49
473.654
402.951
337.751
272.382
207.524
142.518
76.8558
20.8966
-1.27301
-2.00291
-2.14015
-2.26825
-2.39207
-2.51392
-2.63476
-2.75511
-2.87505
-2.99476
-3.11438
-3.234
-3.35375
-3.47367
-3.59383
-3.71426
-3.83499
-3.95601
-4.07732
-4.19902
-4.32077
-4.44282
-4.56512
-4.68764
-4.81032
-4.93309
-5.05587
-5.17859
-5.3012
-5.4237
-5.54613
-5.66854
)
;
    }
    rightWall
    {
        type            calculated;
        value           nonuniform List<scalar> 
50
(
2302.07
1563.56
1089.52
940.395
887.131
830.53
772.995
714.402
619.619
494.387
378.3
277.238
198.666
130.267
67.8347
23.047
4.01017
-1.62705
-1.75646
-1.88006
-2.0075
-2.13462
-2.2613
-2.38721
-2.51083
-2.6338
-2.75814
-2.88341
-3.00824
-3.13323
-3.25891
-3.38525
-3.51188
-3.63882
-3.76585
-3.89282
-4.0197
-4.14647
-4.27315
-4.39975
-4.52629
-4.65283
-4.77943
-4.90606
-5.03278
-5.15954
-5.28631
-5.41305
-5.53966
-5.66626
)
;
    }
    lowerWall
    {
        type            calculated;
        value           nonuniform List<scalar> 
62
(
5145.3
5157.17
5180.98
5216.91
5264.52
5322.49
5388.89
5461.59
5538.27
5616.49
5693.58
5766.72
5833.38
5891.46
5939.42
5976.27
6001.05
6013.98
6017.14
6014.16
6008.45
6002.71
5998.36
5600.23
4800.24
3997.29
3190.83
2379.83
1565.5
914.405
645.839
606.662
612.295
625.821
623.391
2500.45
1744.7
1128.13
864.485
808.413
750.374
692.328
631.722
2882.75
2905.36
2952.97
3013.87
3074.86
3125.57
3160.52
3182.88
3193.75
3193.78
3182.69
3161.09
3126.66
3076.76
3017.29
2942.95
2839.52
2742.26
2686.28
)
;
    }
    atmosphere
    {
        type            calculated;
        value           nonuniform List<scalar> 
46
(
-5.72967
-5.72946
-5.73001
-5.72958
-5.72916
-5.72958
-5.72981
-5.72986
-5.72983
-5.72975
-5.72965
-5.72953
-5.72942
-5.72931
-5.72922
-5.72914
-5.72908
-5.72905
-5.72904
-5.72904
-5.72904
-5.72904
-5.72904
-5.72904
-5.72904
-5.72904
-5.72904
-5.72904
-5.72905
-5.72906
-5.72908
-5.72909
-5.7291
-5.7291
-5.7291
-5.72909
-5.72907
-5.72906
-5.72904
-5.72907
-5.72914
-5.72935
-5.72952
-5.72951
-5.72946
-5.72941
)
;
    }
    defaultFaces
    {
        type            empty;
    }
}


// ************************************************************************* //
