/*--------------------------------*- C++ -*----------------------------------*\
| =========                 |                                                 |
| \\      /  F ield         | OpenFOAM: The Open Source CFD Toolbox           |
|  \\    /   O peration     | Version:  2312                                  |
|   \\  /    A nd           | Website:  www.openfoam.com                      |
|    \\/     M anipulation  |                                                 |
\*---------------------------------------------------------------------------*/
FoamFile
{
    version     2.0;
    format      ascii;
    arch        "LSB;label=32;scalar=64";
    class       surfaceScalarField;
    location    "4.9";
    object      phi;
}
// * * * * * * * * * * * * * * * * * * * * * * * * * * * * * * * * * * * * * //

dimensions      [0 3 -1 0 0 0 0];

oriented        oriented;

internalField   nonuniform List<scalar> 
4432
(
-1.43322e-07
1.43347e-07
-6.85843e-07
5.42545e-07
-1.24544e-06
5.59619e-07
-1.79027e-06
5.44837e-07
-2.32455e-06
5.34299e-07
-2.87352e-06
5.48977e-07
-3.4673e-06
5.93786e-07
-4.12332e-06
6.5602e-07
-4.82839e-06
7.05077e-07
-5.54733e-06
7.18941e-07
-6.21797e-06
6.70633e-07
-6.79145e-06
5.73485e-07
-7.20344e-06
4.11983e-07
-7.408e-06
2.04559e-07
-7.40231e-06
-5.6977e-09
-7.19172e-06
-2.10584e-07
-6.77537e-06
-4.16352e-07
-6.1576e-06
-6.17763e-07
-5.36326e-06
-7.94329e-07
-4.43341e-06
-9.29842e-07
-3.3053e-06
-1.1281e-06
-1.93226e-06
-1.37303e-06
-1.93226e-06
-6.68146e-07
8.11533e-07
-1.2321e-06
1.10653e-06
-1.78242e-06
1.10998e-06
-2.30566e-06
1.0681e-06
-2.80965e-06
1.03831e-06
-3.32697e-06
1.06631e-06
-3.89244e-06
1.15928e-06
-4.52105e-06
1.28464e-06
-5.20119e-06
1.38522e-06
-5.89746e-06
1.41521e-06
-6.56032e-06
1.33348e-06
-7.11465e-06
1.12781e-06
-7.51265e-06
8.09968e-07
-7.69813e-06
3.90024e-07
-7.66543e-06
-3.84052e-08
-7.41917e-06
-4.56843e-07
-6.96757e-06
-8.67953e-07
-6.31624e-06
-1.26908e-06
-5.48848e-06
-1.62207e-06
-4.51045e-06
-1.90784e-06
-3.31866e-06
-2.31986e-06
-1.83674e-06
-2.85491e-06
-3.76895e-06
-8.00147e-07
1.6117e-06
-1.39738e-06
1.70378e-06
-1.97335e-06
1.68596e-06
-2.52147e-06
1.61624e-06
-3.0454e-06
1.56226e-06
-3.56734e-06
1.58826e-06
-4.13825e-06
1.73021e-06
-4.77331e-06
1.9197e-06
-5.46486e-06
2.07677e-06
-6.19387e-06
2.14421e-06
-6.8785e-06
2.01811e-06
-7.45209e-06
1.70139e-06
-7.86479e-06
1.22266e-06
-8.03961e-06
5.64847e-07
-7.9816e-06
-9.64129e-08
-7.70684e-06
-7.31601e-07
-7.2144e-06
-1.36039e-06
-6.51e-06
-1.97347e-06
-5.61809e-06
-2.51398e-06
-4.5898e-06
-2.93612e-06
-3.3409e-06
-3.56876e-06
-1.76361e-06
-4.43218e-06
-5.53257e-06
-7.24522e-07
2.33625e-06
-1.32604e-06
2.30532e-06
-1.9039e-06
2.26385e-06
-2.47712e-06
2.18948e-06
-3.02725e-06
2.1124e-06
-3.55479e-06
2.11582e-06
-4.136e-06
2.31143e-06
-4.80176e-06
2.58547e-06
-5.55034e-06
2.82535e-06
-6.34995e-06
2.94382e-06
-7.11953e-06
2.78768e-06
-7.76647e-06
2.34833e-06
-8.24764e-06
1.70382e-06
-8.44039e-06
7.57592e-07
-8.36441e-06
-1.72399e-07
-8.04742e-06
-1.04859e-06
-7.49739e-06
-1.91041e-06
-6.73384e-06
-2.73702e-06
-5.76881e-06
-3.479e-06
-4.67829e-06
-4.02663e-06
-3.37211e-06
-4.87493e-06
-1.73282e-06
-6.07147e-06
-7.26537e-06
-4.66539e-07
2.80279e-06
-9.30687e-07
2.76946e-06
-1.38348e-06
2.71664e-06
-1.86417e-06
2.67016e-06
-2.42743e-06
2.67566e-06
-3.0444e-06
2.73279e-06
-3.70498e-06
2.97201e-06
-4.45891e-06
3.3394e-06
-5.33629e-06
3.70273e-06
-6.30921e-06
3.91673e-06
-7.23337e-06
3.71184e-06
-7.98944e-06
3.1044e-06
-8.60255e-06
2.31693e-06
-8.8566e-06
1.01165e-06
-8.83074e-06
-1.9825e-07
-8.52846e-06
-1.35088e-06
-7.92095e-06
-2.51793e-06
-7.07133e-06
-3.58663e-06
-6.01216e-06
-4.53817e-06
-4.79142e-06
-5.24738e-06
-3.35327e-06
-6.31309e-06
-1.68544e-06
-7.7393e-06
-8.95082e-06
-5.27065e-07
3.32994e-06
-9.71564e-07
3.21402e-06
-1.3435e-06
3.08863e-06
-1.62761e-06
2.95431e-06
-1.97176e-06
3.01984e-06
-2.38722e-06
3.14826e-06
-2.78818e-06
3.37298e-06
-3.28647e-06
3.83769e-06
-3.9543e-06
4.37056e-06
-4.775e-06
4.73742e-06
-5.71883e-06
4.65567e-06
-6.61848e-06
4.00405e-06
-7.46515e-06
3.16359e-06
-8.29413e-06
1.84062e-06
-8.82491e-06
3.32534e-07
-8.83676e-06
-1.33902e-06
-8.25431e-06
-3.10038e-06
-7.42682e-06
-4.41412e-06
-6.26337e-06
-5.70161e-06
-4.7058e-06
-6.80496e-06
-2.9724e-06
-8.04649e-06
-1.34313e-06
-9.36857e-06
-1.02939e-05
4.72409e-07
2.85762e-06
1.51062e-06
2.17593e-06
2.33791e-06
2.26144e-06
3.13422e-06
2.15807e-06
3.98358e-06
2.17054e-06
4.35716e-06
2.77472e-06
3.90578e-06
3.82437e-06
2.65954e-06
5.08392e-06
8.82375e-07
6.14771e-06
-1.2673e-06
6.88708e-06
-4.00552e-06
7.39387e-06
-6.47343e-06
6.47195e-06
-7.8973e-06
4.58746e-06
-8.67678e-06
2.6201e-06
-8.59266e-06
2.48419e-07
-8.34977e-06
-1.5819e-06
-7.29887e-06
-4.15127e-06
-6.68282e-06
-5.03015e-06
-5.78935e-06
-6.59507e-06
-3.94809e-06
-8.6462e-06
-1.89596e-06
-1.00986e-05
-5.04875e-07
-1.07596e-05
-1.07988e-05
3.56863e-07
2.50086e-06
1.43756e-06
1.0953e-06
2.38555e-06
1.31351e-06
3.3981e-06
1.14556e-06
4.7312e-06
8.37461e-07
6.22814e-06
1.27779e-06
7.73858e-06
2.31394e-06
8.89323e-06
3.92927e-06
9.53522e-06
5.50572e-06
9.5724e-06
6.84989e-06
9.2929e-06
7.67336e-06
9.06614e-06
6.6987e-06
9.38297e-06
4.27062e-06
9.45454e-06
2.54854e-06
6.64975e-06
3.05322e-06
5.24964e-07
4.5429e-06
-3.36163e-06
-2.64667e-07
-3.45136e-06
-4.94041e-06
-1.70797e-06
-8.33844e-06
3.50845e-07
-1.0705e-05
1.77721e-06
-1.15249e-05
2.01321e-06
-1.09956e-05
-8.78557e-06
-6.6727e-07
6.67275e-07
2.27884e-07
-8.95151e-07
1.09892e-06
-8.71033e-07
1.94311e-06
-8.4419e-07
2.70298e-06
-7.59873e-07
3.38854e-06
-6.8556e-07
3.89136e-06
-5.02813e-07
4.43706e-06
-5.45701e-07
5.13441e-06
-6.97362e-07
5.81949e-06
-6.8508e-07
6.35368e-06
-5.3419e-07
6.7459e-06
-3.92226e-07
6.74367e-06
2.22457e-09
6.33493e-06
4.08736e-07
6.15247e-06
1.82463e-07
5.25025e-06
9.0221e-07
3.52198e-06
1.72827e-06
1.70906e-06
1.81291e-06
1.70906e-06
1.07578e-06
-4.08496e-07
1.27409e-06
-1.09345e-06
1.57691e-06
-1.17384e-06
2.25791e-06
-1.52518e-06
3.18519e-06
-1.68716e-06
3.97043e-06
-1.4708e-06
4.50772e-06
-1.0401e-06
5.03076e-06
-1.06874e-06
5.71536e-06
-1.38195e-06
6.37133e-06
-1.34105e-06
6.6886e-06
-8.5146e-07
6.61696e-06
-3.20587e-07
6.26082e-06
3.58359e-07
5.78359e-06
8.85972e-07
5.70484e-06
2.61215e-07
4.67093e-06
1.93612e-06
2.83035e-06
3.56886e-06
1.02673e-06
3.61653e-06
2.73579e-06
1.64804e-06
-2.05652e-06
1.92623e-06
-1.37163e-06
1.85642e-06
-1.10402e-06
1.87398e-06
-1.54274e-06
2.1249e-06
-1.93808e-06
2.58103e-06
-1.92693e-06
3.25722e-06
-1.71629e-06
4.25896e-06
-2.07049e-06
5.52922e-06
-2.65222e-06
6.97107e-06
-2.78291e-06
8.4294e-06
-2.30979e-06
8.95295e-06
-8.44145e-07
8.18481e-06
1.1265e-06
7.7122e-06
1.35858e-06
7.3233e-06
6.50109e-07
4.52718e-06
4.73223e-06
2.48995e-06
5.60607e-06
1.56012e-06
4.54635e-06
4.29589e-06
-1.61125e-06
-4.45168e-07
-1.83757e-07
-2.79905e-06
2.64244e-07
-1.55197e-06
-8.83984e-07
-3.94462e-07
-1.44702e-06
-1.375e-06
-7.2376e-07
-2.65015e-06
7.151e-07
-3.15511e-06
1.86382e-06
-3.21917e-06
2.96755e-06
-3.75591e-06
5.64227e-06
-5.45761e-06
9.34399e-06
-6.01148e-06
1.2541e-05
-4.04111e-06
1.35867e-05
8.07852e-08
1.31722e-05
1.77315e-06
8.49876e-06
5.32354e-06
-1.16207e-06
1.43931e-05
-2.83299e-06
7.27702e-06
3.55976e-06
-1.84639e-06
7.85568e-06
-3.52792e-06
3.08277e-06
-2.01685e-06
-4.3101e-06
-9.50798e-07
-2.61801e-06
3.81984e-07
-1.72724e-06
9.62579e-07
-1.95559e-06
-1.73394e-06
4.63761e-08
-6.27454e-06
1.38549e-06
-8.1598e-06
-1.33392e-06
-7.52166e-06
-4.39405e-06
-1.57497e-06
-1.14043e-05
5.31273e-06
-1.28992e-05
1.19418e-05
-1.06702e-05
1.4512e-05
-2.48936e-06
8.20572e-06
8.07938e-06
-5.4723e-06
1.90015e-05
-8.62031e-06
1.75411e-05
-3.48243e-06
2.13911e-06
2.1158e-06
-7.44464e-06
9.97143e-06
-1.29112e-06
4.37397e-06
-1.69343e-08
-5.58424e-06
1.73405e-06
-4.36895e-06
3.33817e-06
-3.33131e-06
3.69012e-06
-2.30749e-06
2.88386e-06
8.52687e-07
-1.73431e-06
6.00371e-06
-5.1277e-06
2.05953e-06
-5.45083e-06
-4.07087e-06
-3.06528e-06
-1.37898e-05
-3.6684e-07
-1.55976e-05
4.98138e-06
-1.60184e-05
6.8307e-06
-4.33864e-06
2.62352e-06
1.22866e-05
-6.32403e-06
2.79491e-05
-6.67096e-06
1.7888e-05
-1.47281e-06
-3.05902e-06
8.15213e-07
-9.73264e-06
1.07867e-05
2.8705e-06
1.50353e-06
3.78675e-06
-6.50045e-06
5.43308e-06
-6.01522e-06
5.67557e-06
-3.57376e-06
5.04558e-06
-1.67745e-06
4.45949e-06
1.43883e-06
3.30222e-06
7.16103e-06
6.7547e-07
4.68634e-06
-1.09473e-06
-2.30062e-06
-2.69757e-06
-1.21869e-05
-4.727e-06
-1.35681e-05
-2.64771e-06
-1.80977e-05
2.02875e-07
-7.18918e-06
-8.82746e-07
1.33722e-05
-5.70932e-06
3.27757e-05
-3.00259e-06
1.51813e-05
6.62054e-07
-6.72364e-06
5.28711e-07
-9.59927e-06
1.13154e-05
7.69638e-06
-6.19283e-06
6.93721e-06
-5.74126e-06
7.42637e-06
-6.50436e-06
7.33469e-06
-3.48206e-06
6.45686e-06
-7.99592e-07
5.70584e-06
2.18988e-06
5.91543e-06
6.95147e-06
5.27315e-06
5.32865e-06
3.64113e-06
-6.68563e-07
-1.35452e-06
-7.19126e-06
-7.46326e-06
-7.45935e-06
-8.5091e-06
-1.70518e-05
-7.39408e-06
-8.30418e-06
-4.76834e-06
1.07465e-05
-2.99571e-06
3.10031e-05
2.05511e-06
1.01305e-05
2.49541e-06
-7.16393e-06
9.17933e-07
-8.0218e-06
1.22334e-05
3.71479e-07
2.12941e-06
9.85495e-07
4.81319e-07
2.11375e-06
1.85286e-07
4.03349e-06
-7.74176e-07
6.86417e-06
-1.9932e-06
9.97791e-06
-1.83595e-06
1.35983e-05
-1.30648e-06
1.71377e-05
3.89924e-07
2.06445e-05
1.99884e-06
2.40072e-05
3.48722e-06
2.69699e-05
4.71066e-06
2.89503e-05
4.71831e-06
2.99292e-05
3.29169e-06
3.06057e-05
1.87204e-06
3.19642e-05
1.69479e-06
3.34712e-05
3.03591e-06
3.20439e-05
1.16266e-06
3.15144e-05
-4.41095e-06
3.06548e-05
-7.47875e-06
2.78612e-05
-7.91141e-06
2.34901e-05
-7.15383e-06
1.83587e-05
-5.86427e-06
-3.74106e-06
1.33142e-05
1.47609e-06
6.5336e-07
1.43943e-06
5.17996e-07
2.34047e-06
-7.15744e-07
4.0778e-06
-2.5115e-06
5.54805e-06
-3.46346e-06
7.33818e-06
-3.62609e-06
1.08476e-05
-4.8159e-06
1.43381e-05
-3.1006e-06
1.77837e-05
-1.44674e-06
2.14879e-05
-2.16953e-07
2.48801e-05
1.3185e-06
2.71944e-05
2.40392e-06
2.88923e-05
1.59388e-06
2.99678e-05
7.96496e-07
3.06921e-05
9.70548e-07
3.15542e-05
2.17379e-06
3.27763e-05
-5.94048e-08
3.24995e-05
-4.13423e-06
3.09152e-05
-5.89445e-06
2.89242e-05
-5.9204e-06
2.65887e-05
-4.81834e-06
2.34064e-05
-2.68193e-06
1.15506e-06
1.85102e-05
5.28419e-06
-4.63085e-06
1.11999e-05
-5.39773e-06
1.55509e-05
-5.06678e-06
1.74463e-05
-4.40687e-06
1.71008e-05
-3.11793e-06
1.58271e-05
-2.3524e-06
1.67896e-05
-5.77841e-06
1.84907e-05
-4.80168e-06
1.93883e-05
-2.34443e-06
1.932e-05
-1.48659e-07
2.00017e-05
6.36884e-07
2.15519e-05
8.53721e-07
2.2407e-05
7.38769e-07
2.26664e-05
5.37072e-07
2.30593e-05
5.77708e-07
2.37792e-05
1.45381e-06
2.28502e-05
8.6964e-07
2.06031e-05
-1.88711e-06
1.83054e-05
-3.59677e-06
1.70544e-05
-4.66947e-06
1.41759e-05
-1.93981e-06
8.94877e-06
2.54516e-06
8.13354e-06
1.97026e-06
6.96162e-06
-1.15924e-05
1.63507e-05
-1.47868e-05
2.26267e-05
-1.13428e-05
2.73579e-05
-9.13813e-06
3.10749e-05
-6.83492e-06
3.11172e-05
-2.39466e-06
2.91667e-05
-3.82796e-06
2.91494e-05
-4.78436e-06
2.84844e-05
-1.6794e-06
2.53239e-05
3.01186e-06
2.22955e-05
3.6653e-06
2.05016e-05
2.64758e-06
1.83276e-05
2.91277e-06
1.57602e-05
3.10454e-06
1.40693e-05
2.26861e-06
1.3993e-05
1.53005e-06
1.36802e-05
1.18245e-06
1.32109e-05
-1.4178e-06
1.09172e-05
-1.30304e-06
5.02752e-06
1.22017e-06
-2.65066e-06
5.73834e-06
-9.05578e-06
8.95026e-06
1.01173e-05
-1.10396e-05
4.83583e-06
-1.64283e-05
9.0454e-06
-1.89964e-05
1.14389e-05
-1.37363e-05
1.32893e-05
-1.09886e-05
1.69451e-05
-1.04906e-05
2.04298e-05
-5.87935e-06
2.20893e-05
-5.48747e-06
2.45297e-05
-7.22475e-06
2.72004e-05
-4.35007e-06
2.99447e-05
2.67622e-07
3.07495e-05
2.86061e-06
2.96438e-05
3.75336e-06
2.72929e-05
5.26366e-06
2.33321e-05
7.06542e-06
1.76564e-05
7.94432e-06
1.1149e-05
8.03752e-06
5.3492e-06
6.9823e-06
2.01835e-07
3.7296e-06
-4.75727e-06
3.65608e-06
-1.04272e-05
6.89009e-06
-1.36198e-05
8.93093e-06
-1.5064e-05
1.03945e-05
9.1744e-06
-1.41211e-05
2.02875e-06
-1.84571e-05
2.16433e-06
-1.91321e-05
3.6716e-06
-1.52436e-05
5.88099e-06
-1.31981e-05
8.89536e-06
-1.3505e-05
1.34736e-05
-1.04576e-05
1.72406e-05
-9.25445e-06
1.98997e-05
-9.88379e-06
2.30066e-05
-7.45686e-06
2.67328e-05
-3.45851e-06
2.94979e-05
9.55529e-08
3.02025e-05
3.04883e-06
2.88993e-05
6.56692e-06
2.59696e-05
9.99512e-06
2.18355e-05
1.20786e-05
1.76139e-05
1.22593e-05
1.2321e-05
1.22753e-05
2.53445e-06
1.35162e-05
-8.51439e-06
1.4705e-05
-1.67901e-05
1.51658e-05
-2.10708e-05
1.32117e-05
-2.19411e-05
1.12647e-05
9.56473e-06
-2.23315e-05
7.06231e-07
-1.91634e-05
6.76178e-07
-1.91021e-05
2.30124e-06
-1.68687e-05
5.09796e-06
-1.59948e-05
7.92461e-06
-1.63317e-05
1.25359e-05
-1.50689e-05
1.70207e-05
-1.37392e-05
2.02006e-05
-1.30636e-05
2.36257e-05
-1.08819e-05
2.74979e-05
-7.33072e-06
3.10506e-05
-3.45711e-06
3.30314e-05
1.06813e-06
3.26915e-05
6.90688e-06
2.95487e-05
1.31379e-05
2.42202e-05
1.74073e-05
1.83001e-05
1.81795e-05
1.21427e-05
1.84328e-05
3.87818e-06
2.17809e-05
-6.18778e-06
2.4771e-05
-1.54361e-05
2.44142e-05
-2.19819e-05
1.97575e-05
-2.34271e-05
1.271e-05
1.13621e-05
-2.52245e-05
6.77757e-07
-1.98412e-05
1.27494e-06
-1.96993e-05
3.08185e-06
-1.86756e-05
5.90433e-06
-1.88173e-05
9.42856e-06
-1.98559e-05
1.40563e-05
-1.96966e-05
1.87597e-05
-1.84425e-05
2.28416e-05
-1.71456e-05
2.67426e-05
-1.47828e-05
3.08847e-05
-1.14728e-05
3.48404e-05
-7.41284e-06
3.79391e-05
-2.03047e-06
3.92291e-05
5.61691e-06
3.8607e-05
1.37601e-05
3.64816e-05
1.95328e-05
3.49509e-05
1.97106e-05
2.41036e-05
2.9281e-05
1.10166e-05
3.48682e-05
-1.23089e-06
3.70187e-05
7.93245e-07
2.23904e-05
8.35802e-06
1.21933e-05
3.68465e-06
1.73837e-05
2.02606e-05
-5.21373e-06
9.91301e-07
-2.08325e-05
2.66135e-06
-2.13694e-05
5.63762e-06
-2.16519e-05
9.49982e-06
-2.26795e-05
1.39659e-05
-2.4322e-05
1.91655e-05
-2.48962e-05
2.48147e-05
-2.40918e-05
3.04544e-05
-2.27853e-05
3.61542e-05
-2.04826e-05
4.23167e-05
-1.76354e-05
4.91946e-05
-1.42907e-05
5.67607e-05
-9.59649e-06
6.51675e-05
-2.7899e-06
7.60727e-05
2.85506e-06
9.15058e-05
4.09994e-06
9.304e-05
1.81776e-05
5.95792e-05
6.27428e-05
4.15344e-05
5.29138e-05
4.04762e-05
3.8078e-05
2.6969e-05
3.58989e-05
1.30911e-05
2.60722e-05
2.14819e-06
2.83269e-05
1.46232e-05
7.7852e-06
1.29915e-06
-2.21315e-05
3.83166e-06
-2.39018e-05
8.15442e-06
-2.59746e-05
1.35041e-05
-2.80291e-05
1.92911e-05
-3.0109e-05
2.57968e-05
-3.14018e-05
3.30966e-05
-3.13916e-05
4.09753e-05
-3.0664e-05
5.01712e-05
-2.96786e-05
6.14248e-05
-2.88889e-05
7.56829e-05
-2.85489e-05
9.48556e-05
-2.87692e-05
0.000116723
-2.46573e-05
0.000131496
-1.19176e-05
0.000147961
-1.23652e-05
0.000157881
8.25866e-06
0.000141607
7.90177e-05
9.9086e-05
9.54369e-05
6.1646e-05
7.55191e-05
4.19693e-05
5.55762e-05
2.50258e-05
4.3016e-05
2.02847e-05
3.30677e-05
2.14568e-05
1.34502e-05
-1.60417e-06
-2.0526e-05
1.64242e-07
-2.56685e-05
6.10406e-06
-3.19127e-05
1.35816e-05
-3.55051e-05
2.12971e-05
-3.78231e-05
3.04961e-05
-4.05997e-05
4.13031e-05
-4.21978e-05
5.36245e-05
-4.29849e-05
6.85072e-05
-4.4561e-05
8.64259e-05
-4.68077e-05
0.000104588
-4.67115e-05
0.00011125
-3.54306e-05
0.000121405
-3.48118e-05
0.000132104
-2.26171e-05
0.000130844
-1.11052e-05
0.000108168
3.09355e-05
7.64012e-05
0.000110785
5.66058e-05
0.000115232
4.53789e-05
8.67458e-05
3.59997e-05
6.4955e-05
2.73676e-05
5.16475e-05
2.22913e-05
3.81434e-05
2.61227e-05
1.76243e-05
1.36213e-05
-3.4141e-05
2.04429e-05
-3.24842e-05
2.4442e-05
-3.59063e-05
3.16174e-05
-4.26755e-05
3.79381e-05
-4.41394e-05
4.42627e-05
-4.69208e-05
5.25131e-05
-5.04455e-05
6.08169e-05
-5.12868e-05
6.65861e-05
-5.03291e-05
7.4992e-05
-5.5213e-05
8.36335e-05
-5.53525e-05
9.13647e-05
-4.31614e-05
8.24609e-05
-2.59076e-05
6.13261e-05
-1.48202e-06
2.7581e-05
2.26399e-05
-1.6803e-07
5.86838e-05
2.28506e-06
0.000108331
1.65128e-05
0.000101004
2.42473e-05
7.90102e-05
2.47241e-05
6.44774e-05
2.33554e-05
5.30155e-05
2.20584e-05
3.94396e-05
2.93761e-05
1.88038e-05
5.80911e-06
-3.99466e-05
1.10818e-05
-3.77532e-05
1.48863e-05
-3.97072e-05
1.63877e-05
-4.41736e-05
1.97469e-05
-4.74955e-05
2.27965e-05
-4.99678e-05
2.61381e-05
-5.37848e-05
3.09077e-05
-5.60543e-05
3.65562e-05
-5.59758e-05
3.52676e-05
-5.3923e-05
2.55154e-05
-4.55993e-05
1.12114e-05
-2.88566e-05
-8.61124e-06
-6.08447e-06
-2.6242e-05
1.61487e-05
-3.9349e-05
3.57461e-05
-4.50734e-05
6.44071e-05
-2.55593e-05
8.88156e-05
-3.75306e-06
7.91961e-05
8.54448e-06
6.67115e-05
1.39135e-05
5.91074e-05
1.69348e-05
4.99934e-05
1.81541e-05
3.82195e-05
3.11169e-05
1.64122e-05
1.28818e-06
-4.12326e-05
3.27048e-06
-3.97337e-05
3.75009e-06
-4.01852e-05
2.33416e-06
-4.27562e-05
7.56519e-07
-4.59166e-05
-1.17138e-06
-4.80385e-05
-4.56424e-06
-5.03906e-05
-9.31267e-06
-5.13044e-05
-1.57291e-05
-4.9558e-05
-2.55309e-05
-4.412e-05
-3.71257e-05
-3.40036e-05
-4.75785e-05
-1.84033e-05
-5.40296e-05
3.66686e-07
-5.7006e-05
1.91248e-05
-5.83377e-05
3.70769e-05
-4.99223e-05
5.59907e-05
-2.96254e-05
6.85176e-05
-1.19615e-05
6.15311e-05
-1.07814e-06
5.58272e-05
5.39292e-06
5.26356e-05
1.02412e-05
4.51445e-05
1.21009e-05
3.63592e-05
3.31477e-05
1.0069e-05
-1.48854e-06
-3.97443e-05
-2.32143e-06
-3.89009e-05
-3.84705e-06
-3.86597e-05
-6.84139e-06
-3.9762e-05
-1.1098e-05
-4.16601e-05
-1.61068e-05
-4.30297e-05
-2.26263e-05
-4.38709e-05
-3.04529e-05
-4.34775e-05
-3.91733e-05
-4.08373e-05
-4.83295e-05
-3.49635e-05
-5.66446e-05
-2.56883e-05
-6.21357e-05
-1.29122e-05
-6.40889e-05
2.31972e-06
-6.26573e-05
1.76927e-05
-5.77266e-05
3.21456e-05
-4.6577e-05
4.48404e-05
-2.91639e-05
5.11036e-05
-1.61184e-05
4.84849e-05
-7.22491e-06
4.6933e-05
-2.34956e-07
4.56452e-05
4.91205e-06
3.9997e-05
6.76695e-06
3.45037e-05
3.54137e-05
4.5e-06
-2.61809e-06
-3.71276e-05
-4.87342e-06
-3.6647e-05
-7.60291e-06
-3.59316e-05
-1.14574e-05
-3.59088e-05
-1.65196e-05
-3.65992e-05
-2.24792e-05
-3.70712e-05
-2.93834e-05
-3.69675e-05
-3.70491e-05
-3.58125e-05
-4.49732e-05
-3.29136e-05
-5.23615e-05
-2.75755e-05
-5.81517e-05
-1.98983e-05
-6.11515e-05
-9.91273e-06
-6.08615e-05
2.02938e-06
-5.74231e-05
1.42539e-05
-5.05995e-05
2.53216e-05
-3.98771e-05
3.41175e-05
-2.73777e-05
3.86038e-05
-1.78357e-05
3.89424e-05
-1.03e-05
3.93969e-05
-3.58683e-06
3.89317e-05
1.20785e-06
3.5202e-05
3.40508e-06
3.23061e-05
3.56636e-05
3.15423e-06
-2.97387e-06
-3.41556e-05
-5.85798e-06
-3.37648e-05
-9.00674e-06
-3.27846e-05
-1.27821e-05
-3.21352e-05
-1.73618e-05
-3.2021e-05
-2.26838e-05
-3.17507e-05
-2.86325e-05
-3.102e-05
-3.4989e-05
-2.94571e-05
-4.12908e-05
-2.66127e-05
-4.68663e-05
-2.20008e-05
-5.09632e-05
-1.58019e-05
-5.28577e-05
-8.01871e-06
-5.20312e-05
1.20243e-06
-4.83806e-05
1.0603e-05
-4.20928e-05
1.90335e-05
-3.37114e-05
2.57357e-05
-2.49185e-05
2.98107e-05
-1.76139e-05
3.16375e-05
-1.11068e-05
3.28896e-05
-5.0925e-06
3.29172e-05
-7.10708e-07
3.08199e-05
2.24088e-06
2.93542e-05
3.33069e-05
4.59676e-06
-3.01781e-06
-3.114e-05
-6.07572e-06
-3.07088e-05
-9.19852e-06
-2.96637e-05
-1.26079e-05
-2.87276e-05
-1.6466e-05
-2.81646e-05
-2.07413e-05
-2.74769e-05
-2.53705e-05
-2.63921e-05
-3.01796e-05
-2.46491e-05
-3.48768e-05
-2.19165e-05
-3.8943e-05
-1.79354e-05
-4.19214e-05
-1.28242e-05
-4.32707e-05
-6.66998e-06
-4.25658e-05
4.97083e-07
-3.96833e-05
7.72019e-06
-3.49368e-05
1.42868e-05
-2.88841e-05
1.96828e-05
-2.24946e-05
2.3421e-05
-1.65999e-05
2.57425e-05
-1.09668e-05
2.72564e-05
-5.71338e-06
2.76637e-05
-1.59178e-06
2.66981e-05
1.79531e-06
2.59668e-05
2.94828e-05
5.61862e-06
-3.02963e-06
-2.81121e-05
-6.12158e-06
-2.76186e-05
-9.14252e-06
-2.66444e-05
-1.21853e-05
-2.56863e-05
-1.54291e-05
-2.49221e-05
-1.88744e-05
-2.40329e-05
-2.24682e-05
-2.27994e-05
-2.61068e-05
-2.10116e-05
-2.95633e-05
-1.84609e-05
-3.25033e-05
-1.49962e-05
-3.46523e-05
-1.06758e-05
-3.56581e-05
-5.66474e-06
-3.51151e-05
-4.63559e-08
-3.30219e-05
5.62665e-06
-2.95742e-05
1.08389e-05
-2.51336e-05
1.5242e-05
-2.0286e-05
1.85732e-05
-1.54324e-05
2.08888e-05
-1.05933e-05
2.24171e-05
-6.00856e-06
2.30789e-05
-2.17427e-06
2.28637e-05
1.12535e-06
2.2667e-05
2.54501e-05
5.15733e-06
-3.01123e-06
-2.51027e-05
-6.06292e-06
-2.45685e-05
-8.97447e-06
-2.37342e-05
-1.17831e-05
-2.2879e-05
-1.46129e-05
-2.20935e-05
-1.74793e-05
-2.11675e-05
-2.03673e-05
-1.99123e-05
-2.31884e-05
-1.81914e-05
-2.58028e-05
-1.58472e-05
-2.79839e-05
-1.28157e-05
-2.94779e-05
-9.18242e-06
-3.01017e-05
-5.04144e-06
-2.96338e-05
-5.14645e-07
-2.80443e-05
4.03683e-06
-2.54496e-05
8.24405e-06
-2.20896e-05
1.18819e-05
-1.82929e-05
1.47763e-05
-1.4314e-05
1.69097e-05
-1.02474e-05
1.83503e-05
-6.30026e-06
1.91318e-05
-2.77943e-06
1.93427e-05
3.18962e-07
1.95683e-05
2.16703e-05
4.09806e-06
-2.97813e-06
-2.21257e-05
-5.96928e-06
-2.15786e-05
-8.77374e-06
-2.09309e-05
-1.13998e-05
-2.02539e-05
-1.39282e-05
-1.95659e-05
-1.63887e-05
-1.87078e-05
-1.8755e-05
-1.75467e-05
-2.09807e-05
-1.59663e-05
-2.29478e-05
-1.38807e-05
-2.45083e-05
-1.12557e-05
-2.55376e-05
-8.15363e-06
-2.58933e-05
-4.68606e-06
-2.54166e-05
-9.91747e-07
-2.41257e-05
2.74572e-06
-2.20979e-05
6.21601e-06
-1.94812e-05
9.26511e-06
-1.64727e-05
1.17676e-05
-1.32431e-05
1.368e-05
-9.91086e-06
1.50179e-05
-6.60522e-06
1.58261e-05
-3.49147e-06
1.62289e-05
-5.07639e-07
1.65844e-05
1.81908e-05
2.97126e-06
-2.93627e-06
-1.91906e-05
-5.84527e-06
-1.86705e-05
-8.53969e-06
-1.82373e-05
-1.10051e-05
-1.77892e-05
-1.32894e-05
-1.72823e-05
-1.54117e-05
-1.65862e-05
-1.73607e-05
-1.55983e-05
-1.91059e-05
-1.42216e-05
-2.05756e-05
-1.24115e-05
-2.16874e-05
-1.01442e-05
-2.23507e-05
-7.49069e-06
-2.24856e-05
-4.5515e-06
-2.2026e-05
-1.45154e-06
-2.09497e-05
1.66914e-06
-1.93248e-05
4.59094e-06
-1.72471e-05
7.18728e-06
-1.48461e-05
9.36649e-06
-1.22435e-05
1.10773e-05
-9.53887e-06
1.23132e-05
-6.82168e-06
1.31089e-05
-4.16109e-06
1.35682e-05
-1.49169e-06
1.39148e-05
1.50215e-05
1.67713e-06
-2.88567e-06
-1.63056e-05
-5.71289e-06
-1.5844e-05
-8.28365e-06
-1.56672e-05
-1.05952e-05
-1.54783e-05
-1.26573e-05
-1.52208e-05
-1.44884e-05
-1.47555e-05
-1.60888e-05
-1.39983e-05
-1.74405e-05
-1.28703e-05
-1.85278e-05
-1.13245e-05
-1.92975e-05
-9.37481e-06
-1.97052e-05
-7.08324e-06
-1.97054e-05
-4.55155e-06
-1.92616e-05
-1.89549e-06
-1.83594e-05
7.66692e-07
-1.70411e-05
3.27251e-06
-1.53724e-05
5.51851e-06
-1.34398e-05
7.43379e-06
-1.13327e-05
8.97005e-06
-9.1329e-06
1.01133e-05
-6.91051e-06
1.08865e-05
-4.69841e-06
1.13561e-05
-2.44862e-06
1.1665e-05
1.23225e-05
2.49998e-07
-2.82607e-06
-1.34801e-05
-5.56618e-06
-1.31044e-05
-8.03291e-06
-1.32009e-05
-1.01901e-05
-1.33216e-05
-1.2056e-05
-1.33553e-05
-1.36247e-05
-1.31871e-05
-1.4916e-05
-1.27073e-05
-1.59482e-05
-1.18384e-05
-1.67236e-05
-1.05493e-05
-1.72335e-05
-8.86512e-06
-1.74589e-05
-6.85808e-06
-1.73754e-05
-4.63521e-06
-1.69625e-05
-2.30849e-06
-1.62069e-05
1.09644e-08
-1.51345e-05
2.20002e-06
-1.37878e-05
4.1717e-06
-1.22248e-05
5.8707e-06
-1.05114e-05
7.25657e-06
-8.71279e-06
8.31462e-06
-6.87701e-06
9.05069e-06
-5.03726e-06
9.51631e-06
-3.17534e-06
9.80281e-06
1.01795e-05
-1.03273e-06
-2.76861e-06
-1.07117e-05
-5.42486e-06
-1.04484e-05
-7.77538e-06
-1.08507e-05
-9.78681e-06
-1.13104e-05
-1.14592e-05
-1.16832e-05
-1.27919e-05
-1.18546e-05
-1.38196e-05
-1.16798e-05
-1.45791e-05
-1.10791e-05
-1.51044e-05
-1.00242e-05
-1.54127e-05
-8.557e-06
-1.55048e-05
-6.7661e-06
-1.5368e-05
-4.77212e-06
-1.49912e-05
-2.68538e-06
-1.43621e-05
-6.18186e-07
-1.34936e-05
1.33142e-06
-1.24103e-05
3.08833e-06
-1.11497e-05
4.61003e-06
-9.75663e-06
5.86343e-06
-8.27775e-06
6.83568e-06
-6.75674e-06
7.52966e-06
-5.21438e-06
7.97385e-06
-3.65e-06
8.23844e-06
8.46739e-06
-1.9384e-06
-2.70439e-06
-8.0075e-06
-5.27961e-06
-7.87339e-06
-7.51864e-06
-8.61188e-06
-9.3872e-06
-9.44206e-06
-1.08733e-05
-1.01973e-05
-1.19938e-05
-1.07343e-05
-1.27892e-05
-1.08846e-05
-1.33234e-05
-1.0545e-05
-1.36476e-05
-9.70017e-06
-1.37962e-05
-8.40844e-06
-1.37852e-05
-6.77724e-06
-1.36108e-05
-4.94654e-06
-1.32657e-05
-3.03055e-06
-1.27461e-05
-1.13778e-06
-1.20457e-05
6.30969e-07
-1.11812e-05
2.22377e-06
-1.01724e-05
3.6012e-06
-9.04857e-06
4.73952e-06
-7.84245e-06
5.6295e-06
-6.58488e-06
6.27209e-06
-5.2946e-06
6.68355e-06
-3.96757e-06
6.91115e-06
7.06364e-06
-2.56407e-06
-2.64025e-06
-5.36721e-06
-5.12574e-06
-5.38791e-06
-7.25561e-06
-6.48206e-06
-8.98399e-06
-7.71376e-06
-1.02977e-05
-8.88359e-06
-1.12261e-05
-9.80606e-06
-1.18314e-05
-1.02793e-05
-1.21906e-05
-1.01859e-05
-1.23603e-05
-9.53056e-06
-1.23859e-05
-8.38286e-06
-1.22887e-05
-6.87449e-06
-1.20821e-05
-5.15311e-06
-1.17618e-05
-3.35088e-06
-1.13206e-05
-1.57906e-06
-1.07557e-05
6.6058e-08
-1.00698e-05
1.53783e-06
-9.27007e-06
2.80146e-06
-8.37374e-06
3.84314e-06
-7.40154e-06
4.65725e-06
-6.37244e-06
5.24296e-06
-5.30206e-06
5.61308e-06
-4.19489e-06
5.80408e-06
5.9029e-06
-3.03454e-06
-2.57219e-06
-2.79489e-06
-4.97356e-06
-2.98645e-06
-6.99509e-06
-4.46048e-06
-8.58677e-06
-6.12208e-06
-9.74152e-06
-7.72885e-06
-1.05045e-05
-9.0431e-06
-1.09654e-05
-9.81843e-06
-1.12002e-05
-9.95112e-06
-1.12595e-05
-9.47121e-06
-1.11922e-05
-8.45021e-06
-1.10293e-05
-7.03734e-06
-1.07855e-05
-5.39696e-06
-1.04665e-05
-3.66981e-06
-1.00756e-05
-1.97002e-06
-9.61191e-06
-3.97611e-07
-9.06567e-06
9.91595e-07
-8.43595e-06
2.17173e-06
-7.72858e-06
3.13573e-06
-6.95618e-06
3.88479e-06
-6.13228e-06
4.41907e-06
-5.26385e-06
4.74464e-06
-4.3567e-06
4.8966e-06
4.95346e-06
-3.40746e-06
-2.50345e-06
-2.91249e-07
-4.83214e-06
-6.5761e-07
-6.7544e-06
-2.53812e-06
-8.21653e-06
-4.65988e-06
-9.21885e-06
-6.72649e-06
-9.83684e-06
-8.42508e-06
-1.01999e-05
-9.4553e-06
-1.03602e-05
-9.79086e-06
-1.0346e-05
-9.48532e-06
-1.02136e-05
-8.58267e-06
-9.99712e-06
-7.25375e-06
-9.71697e-06
-5.67708e-06
-9.38717e-06
-3.99958e-06
-9.01328e-06
-2.34388e-06
-8.61089e-06
-7.99984e-07
-8.16496e-06
5.45684e-07
-7.66863e-06
1.67539e-06
-7.11624e-06
2.58331e-06
-6.51133e-06
3.27986e-06
-5.86298e-06
3.7707e-06
-5.17678e-06
4.05832e-06
-4.45393e-06
4.17391e-06
4.18988e-06
-3.69075e-06
-2.43634e-06
2.14535e-06
-4.69368e-06
1.59993e-06
-6.53703e-06
-6.94624e-07
-7.88727e-06
-3.30953e-06
-8.74807e-06
-5.8656e-06
-9.2469e-06
-7.92618e-06
-9.5497e-06
-9.15244e-06
-9.66022e-06
-9.68028e-06
-9.59685e-06
-9.54864e-06
-9.42529e-06
-8.75418e-06
-9.17414e-06
-7.50485e-06
-8.85952e-06
-5.99166e-06
-8.50415e-06
-4.3549e-06
-8.13145e-06
-2.71654e-06
-7.74917e-06
-1.18223e-06
-7.36818e-06
1.64707e-07
-6.96743e-06
1.27465e-06
-6.537e-06
2.15287e-06
-6.07219e-06
2.81503e-06
-5.57244e-06
3.27096e-06
-5.04254e-06
3.52848e-06
-4.48067e-06
3.61174e-06
3.59324e-06
-3.88404e-06
-2.3608e-06
4.50632e-06
-4.53974e-06
3.77905e-06
-6.31707e-06
1.08286e-06
-7.57357e-06
-2.05291e-06
-8.3346e-06
-5.10447e-06
-8.77719e-06
-7.48351e-06
-9.01846e-06
-8.91109e-06
-9.05361e-06
-9.64507e-06
-8.95206e-06
-9.65012e-06
-8.7691e-06
-8.93707e-06
-8.51132e-06
-7.76258e-06
-8.183e-06
-6.31992e-06
-7.80342e-06
-4.73442e-06
-7.40884e-06
-3.11108e-06
-7.02596e-06
-1.56509e-06
-6.67075e-06
-1.90472e-07
-6.33191e-06
9.35812e-07
-5.99119e-06
1.81214e-06
-5.63432e-06
2.45816e-06
-5.2589e-06
2.89553e-06
-4.86284e-06
3.13236e-06
-4.44191e-06
3.19108e-06
3.13756e-06
-3.98645e-06
-2.26435e-06
6.77096e-06
-4.36571e-06
5.88062e-06
-6.051e-06
2.76831e-06
-7.20352e-06
-9.00266e-07
-7.94215e-06
-4.36574e-06
-8.37681e-06
-7.04876e-06
-8.50585e-06
-8.78197e-06
-8.44522e-06
-9.70563e-06
-8.32174e-06
-9.77354e-06
-8.15281e-06
-9.10593e-06
-7.92458e-06
-7.99075e-06
-7.6188e-06
-6.62565e-06
-7.24142e-06
-5.11176e-06
-6.82774e-06
-3.52473e-06
-6.42571e-06
-1.96709e-06
-6.06522e-06
-5.50945e-07
-5.75572e-06
6.26312e-07
-5.47523e-06
1.53164e-06
-5.20237e-06
2.18527e-06
-4.92465e-06
2.61783e-06
-4.63634e-06
2.84412e-06
-4.33116e-06
2.88552e-06
2.8043e-06
-3.99789e-06
-2.12216e-06
8.89325e-06
-4.11329e-06
7.87189e-06
-5.68193e-06
4.33707e-06
-6.77581e-06
1.93721e-07
-7.50108e-06
-3.64037e-06
-7.8769e-06
-6.67286e-06
-7.87486e-06
-8.78394e-06
-7.75548e-06
-9.82495e-06
-7.64443e-06
-9.88452e-06
-7.52165e-06
-9.22866e-06
-7.35005e-06
-8.16231e-06
-7.09999e-06
-6.87567e-06
-6.76098e-06
-5.45074e-06
-6.35175e-06
-3.93394e-06
-5.92883e-06
-2.39e-06
-5.54521e-06
-9.34569e-07
-5.23557e-06
3.16657e-07
-4.98576e-06
1.2818e-06
-4.76934e-06
1.96883e-06
-4.56667e-06
2.41512e-06
-4.36623e-06
2.64351e-06
-4.15546e-06
2.67497e-06
2.56955e-06
-3.92106e-06
-1.9137e-06
1.08072e-05
-3.75107e-06
9.70938e-06
-5.17885e-06
5.76494e-06
-6.22299e-06
1.23794e-06
-6.92314e-06
-2.94015e-06
-7.15983e-06
-6.43612e-06
-7.06549e-06
-8.87823e-06
-6.94963e-06
-9.94078e-06
-6.88205e-06
-9.95206e-06
-6.82807e-06
-9.2826e-06
-6.73916e-06
-8.2512e-06
-6.57071e-06
-7.0441e-06
-6.30156e-06
-5.71989e-06
-5.93387e-06
-4.30162e-06
-5.51077e-06
-2.81311e-06
-5.10126e-06
-1.34411e-06
-4.76627e-06
-1.8369e-08
-4.51838e-06
1.03385e-06
-4.33522e-06
1.78561e-06
-4.18427e-06
2.26411e-06
-4.04845e-06
2.50769e-06
-3.91285e-06
2.53893e-06
2.41385e-06
-3.75715e-06
-1.62993e-06
1.24371e-05
-3.26019e-06
1.13397e-05
-4.52775e-06
7.03255e-06
-5.49421e-06
2.20444e-06
-6.10571e-06
-2.32862e-06
-6.18763e-06
-6.35417e-06
-6.0736e-06
-8.99224e-06
-6.00921e-06
-1.00051e-05
-6.01401e-06
-9.94726e-06
-6.04618e-06
-9.25043e-06
-6.05323e-06
-8.24415e-06
-5.98786e-06
-7.10948e-06
-5.81656e-06
-5.89121e-06
-5.52905e-06
-4.58916e-06
-5.13956e-06
-3.20266e-06
-4.71841e-06
-1.76531e-06
-4.34328e-06
-3.93574e-07
-4.07474e-06
7.65242e-07
-3.89858e-06
1.60936e-06
-3.77941e-06
2.14483e-06
-3.68997e-06
2.41805e-06
-3.60995e-06
2.45911e-06
2.31919e-06
-3.51559e-06
-1.27089e-06
1.37081e-05
-2.63959e-06
1.27085e-05
-3.71668e-06
8.10967e-06
-4.53479e-06
3.02257e-06
-4.96404e-06
-1.89935e-06
-4.95503e-06
-6.36318e-06
-4.90311e-06
-9.04417e-06
-4.93005e-06
-9.97821e-06
-5.03736e-06
-9.83996e-06
-5.17063e-06
-9.11718e-06
-5.2814e-06
-8.13341e-06
-5.3246e-06
-7.06632e-06
-5.26474e-06
-5.95112e-06
-5.07948e-06
-4.77448e-06
-4.7694e-06
-3.5128e-06
-4.37073e-06
-2.16406e-06
-3.96739e-06
-7.97e-07
-3.65603e-06
4.53781e-07
-3.46289e-06
1.4161e-06
-3.35782e-06
2.03966e-06
-3.29779e-06
2.35797e-06
-3.25616e-06
2.41693e-06
2.26862e-06
-3.2057e-06
-8.60395e-07
1.45684e-05
-1.92369e-06
1.37718e-05
-2.77724e-06
8.96322e-06
-3.36187e-06
3.60719e-06
-3.54706e-06
-1.71417e-06
-3.51102e-06
-6.39923e-06
-3.56866e-06
-8.98654e-06
-3.72918e-06
-9.81771e-06
-3.96666e-06
-9.60251e-06