/*--------------------------------*- C++ -*----------------------------------*\
| =========                 |                                                 |
| \\      /  F ield         | OpenFOAM: The Open Source CFD Toolbox           |
|  \\    /   O peration     | Version:  2312                                  |
|   \\  /    A nd           | Website:  www.openfoam.com                      |
|    \\/     M anipulation  |                                                 |
\*---------------------------------------------------------------------------*/
FoamFile
{
    version     2.0;
    format      ascii;
    arch        "LSB;label=32;scalar=64";
    class       volScalarField;
    location    "1.95";
    object      alpha.air;
}
// * * * * * * * * * * * * * * * * * * * * * * * * * * * * * * * * * * * * * //

dimensions      [0 0 0 0 0 0 0];

internalField   nonuniform List<scalar> 
2268
(
3.21288e-10
8.82568e-11
9.22621e-12
2.8403e-12
4.1682e-12
5.31475e-12
3.99289e-12
1.56776e-12
7.29798e-13
6.26458e-13
8.21769e-13
1.66875e-12
3.88924e-12
7.07025e-12
1.35301e-11
3.53538e-11
3.79525e-11
2.2166e-11
2.81768e-11
5.40174e-11
5.40229e-11
5.40284e-11
1.01873e-08
7.84237e-10
1.45987e-10
5.30889e-12
2.39345e-11
9.04417e-11
8.41249e-11
3.31574e-11
9.98083e-12
4.32521e-12
3.94489e-12
5.01892e-12
1.11899e-11
3.34586e-11
6.04505e-11
1.06291e-10
4.01452e-10
1.92769e-09
5.48061e-10
2.81794e-11
1.03662e-10
1.49759e-08
6.84187e-08
1.00529e-07
1.11023e-09
4.42662e-09
7.27106e-09
9.05257e-10
7.53709e-10
2.76069e-10
8.60094e-11
2.13265e-11
1.59787e-11
6.51558e-11
1.18758e-10
1.12883e-10
1.05924e-10
1.8012e-10
2.10383e-10
2.10211e-10
1.60661e-08
1.22381e-07
1.83517e-07
8.58516e-08
1.26036e-07
2.58511e-07
2.64185e-07
1.57811e-09
8.04835e-09
1.28001e-08
8.37772e-09
3.6182e-10
6.05872e-11
4.27244e-11
2.12259e-11
1.67992e-10
1.09002e-09
2.05213e-09
2.42492e-09
1.43632e-09
2.12165e-10
3.10539e-10
4.16434e-10
4.05123e-10
1.90235e-07
1.08072e-06
1.13512e-06
2.70819e-07
2.58821e-07
2.1713e-05
1.3344e-11
1.41671e-11
1.39957e-11
1.4645e-11
1.46078e-11
1.4645e-11
1.57815e-11
9.63398e-11
4.85345e-07
2.4762e-09
3.4593e-09
4.24078e-09
3.70455e-09
6.72072e-11
1.42221e-10
1.02741e-10
1.04562e-10
1.02741e-10
1.04569e-10
1.02859e-10
1.04935e-10
0.000220183
0.000709585
0.00100621
0.00107673
0.000447684
5.46784e-05
2.18819e-05
5.01662e-05
0.000102381
9.88367e-05
3.29193e-05
1.32862e-10
5.17184e-12
5.19067e-12
5.17184e-12
5.19066e-12
5.17184e-12
2.40728e-06
5.87272e-05
0.000309589
0.000418734
0.000269038
0.000414246
0.000576867
0.000960293
0.000956171
0.00128135
0.000837295
1.36808e-05
3.69041e-05
8.60639e-05
0.000102536
6.63049e-05
1.38859e-05
4.68269e-05
0.000180636
0.000203813
0.000159909
8.42365e-05
0.000141725
0.000422131
0.000635647
0.000932604
0.0016041
0.00145468
0.000731674
0.000577378
0.000699943
0.000731887
0.00071909
1.3679e-05
1.37221e-05
2.01796e-05
8.05152e-06
8.02838e-06
2.80484e-05
0.000519799
0.000922578
0.00108018
0.000973929
0.000762554
0.000587034
0.000627592
0.000703036
0.000710696
0.000711307
0.000904874
0.00294763
0.00341217
0.00390814
0.00111063
0.000313721
0.000182842
0.000453764
0.0011881
0.00156238
0.00305239
0.0113842
0.0130604
0.0130621
0.0114385
0.010862
0.0108721
0.0106072
0.00659917
0.00596594
0.00596625
0.00596818
0.00602622
0.0055896
0.000164586
0.000185808
0.00235359
0.0110306
0.0110304
0.00643445
0.00210567
0.00210196
0.00610954
0.0100757
0.0106859
0.0139772
0.0153708
0.0127123
0.0107659
0.0123836
0.0124612
0.00800945
0.0062422
0.000163644
0.000163156
0.00242294
0.00304605
0.0107568
0.0107712
0.0066791
0.00508605
0.00754251
0.0136795
0.0127569
0.0225741
0.0247503
0.0867715
0.135595
0.101605
0.0495508
0.0135948
0.0136261
0.0122616
0.0104123
0.0087266
0.00903027
0.0113489
0.00706368
0.00472926
0.00980255
0.0196097
0.0681569
0.152793
0.0467386
0.081623
0.233381
0.233344
0.143331
0.0431651
0.00622669
0.00873545
0.0132726
0.00902135
0.00831527
0.0153461
0.0145749
0.00601603
0.00473288
0.00688076
0.0265046
0.088511
0.183811
0.183432
0.203443
0.0918564
0.00321697
0.00174953
0.00050462
0.000906842
0.000687244
0.0107252
0.00356628
0.00953995
0.0213519
0.0250081
0.0143463
0.00474017
0.00988735
0.0495603
0.0831358
0.174138
0.222521
0.20131
0.0160132
0.000167669
0.000293452
0.0016597
0.00208295
0.000333596
0.00368123
0.00356888
0.00923295
0.0238208
0.0290733
0.044208
0.0195604
0.0318082
0.0411721
0.0850365
0.174138
0.222588
0.222117
0.0396008
0.000167081
0.00185575
0.00694103
0.00399667
0.000333525
0.00367538
0.0111818
0.0200915
0.0323677
0.0583053
0.0583293
0.0352867
0.0239569
0.00147085
0.013135
0.0709909
0.172303
0.172087
0.0486273
0.00461139
0.0201974
0.025677
0.0118929
0.000334137
0.019563
0.000723585
0.00229627
0.00473544
0.007233
0.00636826
0.00234881
0.00324696
0.00696404
0.00619356
0.00724533
0.00544494
0.00461939
0.00155076
0.0007127
0.00269049
0.008514
0.00944744
0.00206187
0.00374956
0.0108732
0.0100568
0.00679499
0.107822
0.0490099
0.00768957
0.00405417
0.00399765
0.0039884
0.00637301
0.0269274
0.0549492
0.0681911
0.0990271
0.121175
0.119153
0.0920608
0.0346563
0.0134952
0.0281528
0.0318055
0.0317792
0.00650456
0.00575874
0.0164383
0.0730342
0.107834
0.0702493
0.00846394
0.00319829
0.00540406
0.0160453
0.0161024
0.0135734
0.00624258
0.020864
0.0817261
0.146154
0.157874
0.157916
0.0877814
0.0161677
0.0160847
0.0240658
0.0168995
0.00561001
0.00561756
0.0160272
0.0819104
0.0262048
0.012218
0.00455722
0.00319868
0.00362146
0.0104327
0.0141578
0.00961304
0.00276309
0.000604654
0.00060404
0.000664842
0.000710471
0.000707344
0.0181582
0.0363811
0.0198096
0.0204622
0.0194142
0.0131274
0.00561001
0.0118031
0.0833108
0.0205049
0.0154703
0.00696491
0.00356236
0.0512864
0.0357235
0.0011405
0.00113871
0.00539408
0.0330421
0.0632413
0.0833576
0.111937
0.170585
0.232004
0.295081
0.353259
0.230555
0.0697327
0.0206688
0.0145191
0.0158164
0.0733205
0.0215771
0.132655
0.0199159
0.00411941
0.177929
0.240934
0.204434
0.289101
0.494816
0.68465
0.776738
0.816758
0.8552
0.903417
0.993895
0.989694
0.961767
0.857565
0.55695
0.183317
0.0168313
0.00468137
0.0130058
0.292699
0.220493
0.0941058
0.180394
0.293538
0.486958
0.748977
0.949506
0.999408
0.999434
0.999744
0.999178
0.993961
0.996076
0.99899
0.99724
0.996435
0.969861
0.479446
0.0373651
0.00450074
0.00458134
0.00458363
0.729512
0.663402
0.654066
0.736315
0.877096
0.991702
0.999993
0.999997
0.999997
0.999993
0.999978
0.998998
0.998375
0.999392
0.999367
0.980536
0.85581
0.257184
0.00736225
0.00398905
0.00307469
0.00435911
0.00462075
0.999958
0.99999
0.999999
0.999999
0.999999
0.999998
0.999996
0.999997
0.999965
0.999891
0.999938
0.999882
0.999994
0.998478
0.965545
0.944493
0.386835
0.00156036
0.00155576
0.001584
0.0017279
0.00187666
0.00236976
0.999965
0.99999
0.999997
0.999996
0.999998
0.999998
0.999998
0.999978
0.999816
0.999813
0.999937
0.999999
0.999999
0.999971
0.994045
0.975403
0.853596
0.351417
0.116088
0.0507721
0.010759
0.00216827
0.00276767
0.999999
0.999996
0.999995
0.999995
0.999997
0.999997
0.999997
0.999993
0.999857
0.999812
0.999947
0.999999
1
0.999992
0.999968
0.99994
0.999913
0.999912
0.999902
0.833935
0.490821
0.335242
0.383884
1
1
0.999997
0.999997
1
0.999998
0.999997
0.999999
0.999981
0.999933
0.999978
0.999999
1
0.999997
0.999999
0.999999
0.999935
0.999905
0.999903
0.999624
0.999164
0.998787
0.997931
1
1
1
1
1
0.999999
0.999999
1
1
1
1
0.999999
0.999999
0.999999
0.999999
1
0.999956
0.99985
0.999748
0.999793
0.999759
0.998546
0.998521
1
1
1
0.999999
0.999999
1
1
1
1
1
1
0.999999
0.999999
0.999999
0.999999
1
0.999983
0.999654
0.999614
0.999614
0.999676
0.999679
0.999379
1
0.999999
0.999999
0.999999
0.999999
1
1
1
1
1
1
1
0.999999
1
1
1
0.99999
0.999834
0.999619
0.999621
0.999709
0.999949
0.999747
1
1
0.999999
0.999999
1
1
1
1
1
1
1
1
1
1
1
1
0.999995
0.999994
0.999962
0.999906
0.999943
0.99999
0.999999
1
1
1
1
1
1
1
1
1
1
1
1
1
1
1
1
1
1
1
1
1
1
1
1
1
1
1
1
1
1
1
1
1
1
1
1
1
1
1
1
1
1
1
1
1
1
1
1
1
1
1
1
1
1
1
1
1
1
1
1
1
1
1
1
1
1
1
1
1
1
1
1
1
1
1
1
1
1
1
1
1
1
1
1
1
1
1
1
1
1
1
1
1
1
1
1
1
1
1
1
1
1
1
1
1
1
1
1
1
1
1
1
1
1
1
1
1
1
1
1
1
1
1
1
1
1
1
1
1
1
1
1
1
1
1
1
1
1
1
1
1
1
1
1
1
1
1
1
1
1
1
1
1
1
1
1
1
1
1
1
1
1
1
1
1
1
1
1
1
1
1
1
1
1
1
1
1
1
1
1
1
1
1
1
1
1
1
1
1
1
1
1
1
1
1
1
1
1
1
1
1
1
1
1
1
1
1
1
1
1
1
1
1
1
1
1
1
1
1
1
1
1
1
1
1
1
1
1
1
1
0.999999
1
1
1
1
1
1
1
1
1
1
1
1
1
1
1
1
1
1
1
1
1
1
0.999999
1
1
1
1
1
1
1
1
1
1
1
1
1
1
1
1
1
1
1
1
1
1
0.999998
1
1
1
1
1
1
1
1
1
1
1
1
1
1
1
1
1
1
1
1
1
1
0.999998
1
1
1
1
1
1
1
1
1
1
1
1
1
1
1
1
1
1
1
1
1
1
0.999998
0.999999
1
1
1
1
1
1
1
1
1
1
1
1
1
1
1
1
1
1
1
1
1
0.999999
0.999999
1
1
1
0.999999
1
1
1
1
1
1
1
1
1
1
1
1
1
1
1
1
1
0.999999
0.999999
0.999999
0.999997
0.999997
0.999999
1
1
1
1
1
1
1
1
1
1
1
1
1
1
1
1
1
0.999998
0.999999
0.999997
0.999996
0.999996
0.999999
1
1
0.999999
1
1
1
1
1
1
1
1
1
1
1
1
1
1
0.999971
0.99998
0.999989
0.999996
0.999998
1
1
0.999999
0.999999
1
1
1
1
1
1
1
1
1
1
1
1
1
1
0.999969
0.99997
0.999978
0.999998
1
1
1
0.999999
0.999999
1
1
1
1
1
1
1
1
1
1
1
1
1
1
0.999969
0.999976
0.999991
1
1
1
1
0.999999
1
1
1
1
1
1
1
1
1
1
1
1
1
1
1
0.999969
0.999997
1
1
1
1
1
1
1
1
1
1
1
1
1
1
1
1
1
1
1
1
1
0.999978
0.999992
1
0.999999
1
0.999998
1
1
1
1
1
1
1
1
1
1
1
1
1
1
1
1
1
0.999999
0.999966
0.999967
0.999964
0.999965
0.999989
1
1
1
1
1
1
1
1
1
1
1
1
1
1
1
1
1
1
0.999983
0.999966
0.999964
0.999969
0.999992
1
1
1
1
1
1
1
1
1
1
1
1
1
1
1
1
1
1
1
0.999996
0.999995
0.999998
0.999999
1
1
1
1
1
1
1
1
1
1
1
1
1
1
1
1
1
0.0223039
0.0296375
0.0267487
0.0112388
0.0872079
0.0592689
0.00102902
0.00112329
0.0872056
0.0645469
0.00102935
0.00102905
0.0872082
0.0338667
0.00102884
0.00172257
0.046438
0.0130933
0.00450662
0.0208096
0.0116937
0.0184968
0.0463683
0.0531241
0.00471009
0.0305116
0.0462962
0.0453173
0.0065001
0.00659683
0.00521181
0.00440124
0.0018356
0.00180191
0.00180908
0.0032714
0.00586993
0.00416139
0.00377151
0.00368694
0.819987
0.897375
0.864462
0.850338
0.996439
0.997333
0.998329
0.998481
0.999361
0.999928
0.999929
0.999931
0.999664
0.999411
0.999176
0.999179
0.999694
0.999914
0.999846
0.999209
1
1
1
0.999865
1
1
1
1
1
1
1
1
1
1
1
1
1
1
1
1
1
1
1
1
1
1
1
1
1
1
1
1
1
1
1
1
1
1
1
1
1
1
1
1
1
1
1
1
1
1
1
1
1
1
1
1
1
1
1
1
1
1
1
1
1
1
1
1
1
1
1
1
1
1
1
1
1
1
1
1
1
1
1
1
1
1
1
1
1
1
1
1
1
1
1
1
1
1
1
1
1
1
1
1
1
1
1
1
0.0093131
0.0084098
0.00571307
0.0345341
0.0583002
0.0579254
0.02411
1.93159e-06
1.93121e-06
2.1409e-06
5.20516e-05
0.00294403
0.0241686
0.0608569
0.0784955
0.0749532
0.0214425
0.0132082
0.000695305
0.00133563
0.00116866
0.0011622
0.0105323
0.03669
0.0325682
0.00199138
1.95144e-06
1.93184e-06
2.82012e-06
1.19863e-05
2.60519e-05
2.63449e-05
0.0914015
0.121947
0.0582151
0.0132586
0.0132208
0.0238411
0.00102949
0.00109017
0.00121797
0.0016209
0.000413703
0.000252916
0.000243582
1.93267e-06
1.9324e-06
1.93202e-06
0.00185982
0.0193257
0.0795774
0.158721
0.148791
0.04227
0.113398
0.0140244
0.037554
0.0169091
0.0282954
0.0302279
0.0246923
0.00369829
0.000284282
0.00428159
0.0159986
0.0217358
0.0117838
0.0481581
0.15872
0.158721
0.15872
0.132058
0.0420324
0.173792
0.0584264
0.0387114
0.0539068
0.0540018
0.0539817
0.0256806
0.00339052
0.00629824
0.0482257
0.0858579
0.0858543
0.0705595
0.0467668
0.108203
0.158622
0.138675
0.05757
0.0583707
0.178799
0.0958523
0.0357023
0.0535215
0.0440837
0.00338867
0.00338195
0.00338107
0.00716983
0.0522156
0.0851395
0.0858555
0.0858503
0.0657047
0.0139248
0.0139044
0.021942
0.0378292
0.113378
0.177976
0.111883
0.0325994
0.0254878
0.0082999
0.00387712
0.00351479
0.00337923
0.00344503
0.00345505
0.00438306
0.0296052
0.0488485
0.0291095
0.0144478
0.0124261
0.0529696
0.102678
0.158341
0.156176
0.0657089
0.0326751
0.00406471
0.00394201
0.00391208
0.00269175
0.000792697
0.000793852
0.000789241
0.000796407
0.00168516
0.0040362
0.00425276
0.00419887
0.00693219
0.0797736
0.136187
0.170906
0.131697
0.039694
0.0402169
0.00400022
0.00393064
0.00392113
0.0178542
0.117416
0.263983
0.359174
0.382144
0.309245
0.23994
0.23629
0.300552
0.383179
0.416599
0.419306
0.341141
0.268053
0.221677
0.107758
0.00377483
0.047925
0.254128
0.631108
0.880511
0.960261
0.984968
0.98705
0.966102
0.945429
0.946151
0.966547
0.976438
0.97858
0.968218
0.956359
0.896813
0.765569
0.649342
0.896245
0.954336
0.981826
0.989666
0.998314
0.999998
0.99999
0.999916
0.999681
0.999627
0.999827
0.999952
0.999973
0.999973
0.999986
0.999998
0.999998
0.999997
0.999275
0.99892
0.999322
0.999917
0.999998
0.999998
0.999998
0.999995
0.999817
0.999603
0.999603
0.999606
0.999813
0.999823
0.999885
0.999962
0.999978
0.999981
0.999997
1
0.999983
0.999989
0.99999
0.999996
0.999998
0.999998
0.999998
0.999985
0.999892
0.999781
0.999807
0.999627
0.999626
0.999678
0.99989
0.999916
0.999929
0.999986
1
0.999446
0.999847
0.999945
0.999981
0.999998
0.999998
0.999999
1
1
0.999996
0.999973
0.999935
0.999807
0.999757
0.999874
0.999905
0.999928
0.99998
1
0.999206
0.999215
0.999757
0.999801
0.999842
0.999965
1
1
1
1
1
0.999993
0.999975
0.999974
0.999946
0.999924
0.999941
0.999994
1
0.999474
0.999844
0.99971
0.999551
0.999549
0.999591
0.999851
0.999982
1
1
1
1
0.999901
0.999942
0.999996
0.999972
1
1
0.999997
1
1
0.999998
0.99986
0.999581
0.999554
0.999554
0.999641
0.999831
0.999984
1
0.999984
0.999797
0.999877
0.999996
1
1
1
0.999993
1
1
1
1
0.999978
0.999736
0.999556
0.999566
0.999609
0.999699
0.999881
0.999777
0.999779
0.999889
0.999992
1
1
1
0.999993
1
1
1
1
1
0.999997
0.999954
0.999751
0.999616
0.999614
0.999614
0.999614
0.999826
0.999978
0.999998
1
1
1
0.999994
1
1
1
1
1
1
1
1
0.999981
0.999846
0.999793
0.999895
0.99999
1
1
1
1
1
0.999993
1
1
1
1
1
1
1
1
1
1
0.999998
1
1
1
1
1
1
1
0.999993
1
1
1
1
1
1
1
0.999999
0.999999
0.999999
0.999999
1
1
1
1
1
1
1
0.999997
1
1
1
1
1
1
1
0.999999
0.999999
0.999999
1
1
1
1
1
1
1
0.999999
0.999999
1
1
1
1
1
1
1
1
1
1
1
1
1
1
1
1
1
0.999991
0.999998
1
1
1
1
1
1
1
1
1
1
1
1
1
1
1
1
0.999999
0.99999
0.999995
1
1
1
1
1
1
1
1
1
1
1
1
1
1
1
1
0.999998
0.99999
0.999995
1
1
1
1
1
1
1
1
1
1
1
1
1
1
1
1
0.999999
0.999991
0.999999
1
1
1
1
1
1
1
1
1
1
1
1
1
1
1
1
1
1
1
1
1
1
1
1
1
1
1
1
1
1
1
1
1
1
1
1
1
1
1
1
1
1
1
1
1
1
1
1
1
1
1
1
1
1
1
1
1
1
1
1
1
1
1
1
1
1
1
1
1
1
1
1
1
1
1
1
1
1
1
1
1
1
1
1
1
1
1
1
1
1
1
1
1
1
1
1
1
1
1
1
1
1
1
1
1
1
1
1
1
1
1
1
1
1
1
1
1
1
1
1
1
1
1
1
1
1
1
1
1
1
1
1
1
1
1
1
1
1
1
1
1
1
1
1
1
1
1
1
1
1
1
1
1
1
1
1
1
1
1
1
1
1
1
1
1
1
1
1
1
1
1
1
1
1
1
1
1
1
1
1
1
1
1
1
1
1
1
1
1
1
1
1
1
1
1
1
1
1
1
1
1
1
1
1
1
1
1
1
1
1
1
1
1
1
1
1
1
1
1
1
1
1
1
1
1
1
1
1
1
1
1
1
1
1
1
1
1
1
1
1
1
1
1
1
1
1
1
1
1
1
1
1
1
1
1
1
1
1
1
1
1
1
1
1
1
1
1
1
1
1
1
1
1
1
1
1
1
1
1
1
1
1
1
1
1
)
;

boundaryField
{
    leftWall
    {
        type            alphaContactAngle;
        thetaProperties 
6
(
(galistan air) 90 0 0 0
(oil galistan) 90 0 0 0
(water oil) 90 0 0 0
(water air) 90 0 0 0
(oil air) 90 0 0 0
(water galistan) 90 0 0 0
);
        value           nonuniform List<scalar> 
50
(
3.21288e-10
7.84237e-10
1.11023e-09
1.57811e-09
1.3344e-11
0.00100621
0.000956171
0.000731887
0.019563
0.107822
0.107834
0.0262048
0.0205049
0.0215771
0.292699
0.729512
0.999958
0.999965
0.999999
1
1
1
1
1
1
1
1
1
1
1
1
1
1
1
0.999999
0.999999
0.999998
0.999998
0.999998
0.999999
0.999999
0.999998
0.999971
0.999969
0.999969
0.999969
0.999978
0.999999
1
1
)
;
    }
    rightWall
    {
        type            alphaContactAngle;
        thetaProperties 
6
(
(galistan air) 90 0 0 0
(oil galistan) 90 0 0 0
(water oil) 90 0 0 0
(water air) 90 0 0 0
(oil air) 90 0 0 0
(water galistan) 90 0 0 0
);
        value           nonuniform List<scalar> 
50
(
0.0055896
0.0062422
0.0136261
0.00873545
0.000687244
0.000333596
0.000333525
0.000334137
0.000695305
0.0238411
0.037554
0.0387114
0.0357023
0.0325994
0.0326751
0.0402169
0.107758
0.649342
0.999275
1
1
1
1
0.999997
0.999993
0.999993
0.999994
0.999993
0.999993
0.999997
0.999999
0.999998
0.999995
0.999995
0.999999
1
1
1
1
1
1
1
1
1
1
1
1
1
1
1
)
;
    }
    lowerWall
    {
        type            alphaContactAngle;
        thetaProperties 
6
(
(galistan air) 90 0 0 0
(oil galistan) 90 0 0 0
(water oil) 90 0 0 0
(water air) 90 0 0 0
(oil air) 90 0 0 0
(water galistan) 90 0 0 0
);
        value           nonuniform List<scalar> 
62
(
3.21288e-10
8.82568e-11
9.22621e-12
2.8403e-12
4.1682e-12
5.31475e-12
3.99289e-12
1.56776e-12
7.29798e-13
6.26458e-13
8.21769e-13
1.66875e-12
3.88924e-12
7.07025e-12
1.35301e-11
3.53538e-11
3.79525e-11
2.2166e-11
2.81768e-11
5.40174e-11
5.40229e-11
5.40284e-11
1.01873e-08
1.01873e-08
1.00529e-07
2.64185e-07
2.1713e-05
0.000709585
0.000960293
0.000699943
0.00111063
0.0223039
0.0296375
0.0267487
0.0112388
0.000313721
0.000164586
0.000163644
0.0122616
0.0132726
0.0107252
0.00368123
0.00367538
0.000313721
0.000182842
0.000453764
0.0011881
0.00156238
0.00305239
0.0113842
0.0130604
0.0130621
0.0114385
0.010862
0.0108721
0.0106072
0.00659917
0.00596594
0.00596625
0.00596818
0.00602622
0.0055896
)
;
    }
    atmosphere
    {
        type            inletOutlet;
        inletValue      uniform 1;
        value           nonuniform List<scalar> 
46
(
1
1
0.999996
0.999995
0.999998
0.999999
1
1
1
1
1
1
1
1
1
1
1
1
1
1
1
1
1
1
1
1
1
1
1
1
1
1
1
1
1
1
1
1
1
1
1
1
1
1
1
1
)
;
    }
    defaultFaces
    {
        type            empty;
    }
}


// ************************************************************************* //
