/*--------------------------------*- C++ -*----------------------------------*\
| =========                 |                                                 |
| \\      /  F ield         | OpenFOAM: The Open Source CFD Toolbox           |
|  \\    /   O peration     | Version:  2312                                  |
|   \\  /    A nd           | Website:  www.openfoam.com                      |
|    \\/     M anipulation  |                                                 |
\*---------------------------------------------------------------------------*/
FoamFile
{
    version     2.0;
    format      ascii;
    arch        "LSB;label=32;scalar=64";
    class       volScalarField;
    location    "1.95";
    object      alphas;
}
// * * * * * * * * * * * * * * * * * * * * * * * * * * * * * * * * * * * * * //

dimensions      [0 0 0 0 0 0 0];

internalField   nonuniform List<scalar> 
2268
(
2
2
2
2
2
2
2
2
2
2
2
2
2
2
2
2
2
2
2
2
2
1.99995
1.99994
2
2
2
2
2
2
2
2
2
2
2
2
2
2
2
2
2
2
2
2
2
1.99998
1.99996
2
2
2
2
2
2
2
2
2
2
2
2
2
2
2
2
2
2
2
2
2
2
2
2
2
2
2
2
2
2
2
2
2
2
2
2
2
2
2
2
2
2
2
2
2
2.00002
2
2
2
2
2
2
2
2
2
2
2
2
2
2
2
2
1.99999
1.99958
1.98625
1.95779
1.92064
1.879
1.81903
1.68448
1.88092
1.97589
1.99746
2.00002
2.00005
2.0001
2.00009
1.99983
1.98968
1.95947
1.91511
1.84568
1.76599
1.67098
1.55304
1.38966
1.14796
0.9131
0.732726
0.602514
0.478722
0.403771
1.22977
0.826223
0.851066
1.15771
1.47126
1.62137
1.62736
1.48178
1.22511
0.922557
0.712473
0.55509
0.403984
0.290294
0.194189
0.109376
0.0314749
0.00288298
0.00489378
0.00460807
0.00695713
0.0134866
0.0140694
0.670383
0.0121684
0.0104427
0.0365337
0.121104
0.195362
0.190592
0.101301
0.0105801
0.00297904
0.00332825
0.00299297
0.00241485
0.00187315
0.00192677
0.0021135
0.0021332
0.00213516
0.00271548
0.00886343
0.0104104
0.0134855
0.0135518
1.78782
1.87915
1.87892
1.87351
1.88593
1.89439
1.91107
1.91441
1.9214
1.9221
1.9216
1.92977
1.93366
1.92966
1.93164
1.93238
1.93241
1.93775
1.94197
1.78562
1.88044
1.80651
1.75404
1.65812
1.63579
1.60406
1.53193
1.41344
1.50062
1.69513
1.63062
1.6363
1.69369
1.76432
1.8431
1.89552
1.9111
1.89713
1.77094
1.66026
1.47871
1.40494
1.34479
1.19481
1.14865
1.25993
1.11012
1.11504
1.10432
1.36227
1.4281
1.48778
1.5712
1.47413
1.32325
1.23196
1.39812
1.49492
1.30169
0.749006
0.66467
0.688221
0.636434
0.565601
0.727409
1.08084
1.13952
1.24331
1.03049
1.35076
1.56087
1.40205
1.15032
0.674655
0.367497
0.539631
0.760844
0.427271
0.412617
0.493368
0.455133
0.473939
0.469905
0.420606
0.852976
1.14595
1.28553
1.27513
1.2989
0.941823
0.489534
0.285611
0.10043
0.102509
0.416666
0.443887
0.436426
0.815206
0.935224
0.734458
0.488121
0.38759
0.632448
1.05442
1.10984
1.22239
1.32775
1.26913
0.491439
0.120703
0.100933
0.106828
0.107298
0.140244
0.400886
0.712683
0.909497
0.719178
0.431865
0.611629
0.928064
1.05364
1.06295
1.05223
1.16742
1.23555
1.2087
0.343701
0.131945
0.108341
0.126043
0.110779
0.102679
0.82333
0.772011
0.287349
0.148823
0.453545
0.978252
0.961275
0.938388
0.563817
0.3828
0.343951
0.589895
0.61848
0.286893
0.247498
0.338156
0.397836
0.263228
0.10366
0.911128
0.196029
0.0116335
0.0172095
0.0241
0.0215068
0.0115902
0.0115549
0.0208931
0.0185817
0.0217359
0.0163347
0.013858
0.00465213
0.00213805
0.00807219
0.0255426
0.0283445
0.0061871
0.0112495
0.0326343
0.0304883
0.0299791
1.19001
1.00198
0.523232
0.350775
0.400983
0.416936
0.402228
0.421298
0.451988
0.535209
0.585305
0.538312
0.503327
0.469057
0.414079
0.430129
0.476809
0.440469
0.397189
0.288028
0.206389
0.141803
0.236412
1.21475
1.14068
1.01181
0.974483
0.992758
1.02084
1.03165
1.02729
1.01266
1.04191
1.16363
1.2879
1.26707
1.25451
1.1297
1.01613
1.01553
1.0239
0.990085
0.937308
0.879363
0.718586
0.437341
1.0524
1.02443
1.0091
1.00569
1.00695
1.02087
1.02832
1.01922
1.00548
1.00116
1.0012
1.00137
1.00143
1.00154
1.03649
1.07287
1.03877
1.0407
1.03757
1.0187
0.996126
1.0045
1.01402
1.04099
1.03093
1.01391
1.00672
1.10248
1.07145
1.00228
1.0023
1.00995
1.06384
1.12416
1.16449
1.22128
1.33795
1.46064
1.58753
1.7054
1.46099
1.13947
1.04133
1.02303
1.02344
1.14666
1.04311
1.2653
1.03979
1.00821
1.35584
1.48186
1.40887
1.57825
1.9885
2.3648
2.5488
2.62834
2.70446
2.8008
2.98176
2.97794
2.92353
2.71513
2.1139
1.3662
1.03188
1.00848
1.02603
1.58536
1.44096
1.18819
1.36077
1.58706
1.97389
2.49795
2.89903
2.99842
2.99853
2.99942
2.9976
2.98188
2.98823
2.99701
2.99172
2.98932
2.93577
1.95755
1.07393
1.00847
1.00899
1.0096
2.45898
2.32677
2.30811
2.47261
2.75417
2.98338
2.99998
2.99999
3
2.99999
2.99994
2.99701
2.99513
2.99818
2.99811
2.94205
2.6689
1.47158
0.988577
1.00693
1.00423
1.00852
1.00971
2.99987
2.99997
3
3
3
3
2.99999
2.99999
2.99993
2.99978
2.99985
2.99965
2.99999
2.99554
2.89817
2.84647
1.73115
0.960643
0.968328
0.999891
1.0002
1.00076
1.00226
2.9999
2.99997
2.99999
2.99999
3
2.99999
2.99999
2.99996
2.99963
2.99962
2.99987
3
3
2.99992
2.98276
2.92797
2.67165
1.69199
1.23234
1.1016
1.02024
1.00259
1.00419
3
2.99999
2.99999
2.99999
2.99999
2.99999
2.99999
2.99999
2.99971
2.99962
2.99989
3
3
2.99998
2.99996
2.99994
2.99991
2.99991
2.9999
2.66795
1.98174
1.67887
1.78976
3
3
2.99999
2.99999
3
2.99999
2.99999
3
2.99996
2.99987
2.99996
3
3
2.99999
3
3
2.9998
2.99974
2.99987
2.99959
2.99909
2.99868
2.9979
3
3
3
3
3
3
3
3
3
3
3
3
3
3
3
3
2.99987
2.99956
2.99926
2.99947
2.99948
2.99703
2.99696
3
3
3
3
3
3
3
3
3
3
3
3
3
3
3
3
2.99995
2.99899
2.99892
2.99892
2.99911
2.99936
2.99877
3
3
3
3
3
3
3
3
3
3
3
3
3
3
3
3
2.99997
2.99951
2.99892
2.99893
2.99914
2.99986
2.99949
3
3
3
3
3
3
3
3
3
3
3
3
3
3
3
3
2.99998
2.99998
2.99989
2.99972
2.99983
2.99997
3
3
3
3
3
3
3
3
3
3
3
3
3
3
3
3
3
3
3
3
3
3
3
3
3
3
3
3
3
3
3
3
3
3
3
3
3
3
3
3
3
3
3
3
3
3
3
3
3
3
3
3
3
3
3
3
3
3
3
3
3
3
3
3
3
3
3
3
3
3
3
3
3
3
3
3
3
3
3
3
3
3
3
3
3
3
3
3
3
3
3
3
3
3
3
3
3
3
3
3
3
3
3
3
3
3
3
3
3
3
3
3
3
3
3
3
3
3
3
3
3
3
3
3
3
3
3
3
3
3
3
3
3
3
3
3
3
3
3
3
3
3
3
3
3
3
3
3
3
3
3
3
3
3
3
3
3
3
3
3
3
3
3
3
3
3
3
3
3
3
3
3
3
3
3
3
3
3
3
3
3
3
3
3
3
3
3
3
3
3
3
3
3
3
3
3
3
3
3
3
3
3
3
3
3
3
3
3
3
3
3
3
3
3
3
3
3
3
3
3
3
3
3
3
3
3
3
3
3
3
3
3
3
3
3
3
3
3
3
3
3
3
3
3
3
3
3
3
3
3
3
3
3
3
3
3
3
3
3
3
3
3
3
3
3
3
3
3
3
3
3
3
3
3
3
3
3
3
3
3
3
3
3
3
3
3
3
3
3
3
3
3
3
3
3
3
3
3
3
3
3
3
3
3
3
3
3
3
3
3
3
3
3
3
3
3
3
3
3
3
3
3
3
3
3
3
3
3
3
3
3
3
3
3
3
3
3
3
3
3
3
3
3
3
3
3
3
3
3
3
3
3
3
3
3
3
3
3
3
3
3
3
3
3
3
3
3
3
3
3
3
3
2.99999
2.99999
3
3
3
3
3
3
3
3
3
3
3
3
3
3
3
3
3
3
2.99999
3
2.99999
2.99999
2.99999
3
3
3
3
3
3
3
3
3
3
3
3
3
3
3
3
3
3
2.99994
2.99996
2.99998
2.99999
2.99999
3
3
3
3
3
3
3
3
3
3
3
3
3
3
3
3
3
3
2.99994
2.99994
2.99996
3
3
3
3
3
3
3
3
3
3
3
3
3
3
3
3
3
3
3
3
2.99994
2.99995
2.99998
3
3
3
3
3
3
3
3
3
3
3
3
3
3
3
3
3
3
3
3
2.99994
2.99999
3
3
3
3
3
3
3
3
3
3
3
3
3
3
3
3
3
3
3
3
3
2.99995
2.99998
3
3
3
3
3
3
3
3
3
3
3
3
3
3
3
3
3
3
3
3
3
3
2.99993
2.99993
2.99993
2.99993
2.99998
3
3
3
3
3
3
3
3
3
3
3
3
3
3
3
3
3
3
2.99997
2.99993
2.99993
2.99994
2.99998
3
3
3
3
3
3
3
3
3
3
3
3
3
3
3
3
3
3
3
2.99999
2.99999
3
3
3
3
3
3
3
3
3
3
3
3
3
3
3
3
3
3
3
0.138251
0.295678
0.747167
0.729824
0.281591
0.234608
0.444899
0.668452
0.336361
0.664386
0.767986
0.452069
0.96062
1.0253
0.966075
0.518968
1.09291
1.02248
0.996896
0.986372
1.02377
1.02949
1.08107
1.10064
1.00219
1.04885
1.08106
1.09001
1.00324
1.00045
1.01001
1.00842
0.999903
1.00046
1.00082
1.00542
1.01208
1.00886
1.00761
1.00725
2.66187
2.81631
2.74815
2.7166
2.99644
2.99732
2.99739
2.99692
2.99868
2.99985
2.99986
2.99986
2.99935
2.99882
2.99833
2.99832
2.99939
2.99983
2.99969
2.99842
3
3
3
2.99973
3
3
3
3
3
3
3
3
3
3
3
3
3
3
3
3
3
3
3
3
3
3
3
3
3
3
3
3
3
3
3
3
3
3
3
3
3
3
3
3
3
3
3
3
3
3
3
3
3
3
3
3
3
3
3
3
3
3
3
3
3
3
3
3
3
3
3
3
3
3
3
3
3
3
3
3
3
3
3
3
3
3
3
3
3
3
3
3
3
3
3
3
3
3
3
3
3
3
3
3
3
3
3
3
0.722177
0.281966
0.0211751
0.164581
0.67402
0.815021
0.257116
0.000788388
0.011681
0.00161988
0.000165101
0.00884329
0.0816306
0.427835
0.68409
0.655214
0.464374
0.328843
0.111283
0.490229
0.00368582
0.00369048
0.0574734
0.164701
0.156402
0.0357229
5.33897e-05
5.46117e-05
5.70912e-05
7.23564e-05
9.51073e-05
0.000508578
0.494278
0.792227
0.550399
0.199857
0.199723
0.378213
0.0479494
0.00365693
0.00424701
0.00564798
0.00136204
0.000786542
0.000747633
0.000239512
0.000389088
0.000263291
0.00603509
0.0601608
0.242788
0.684618
0.833438
0.409517
0.729229
0.202044
0.701757
0.129171
0.08776
0.0993614
0.0841908
0.014101
0.000991012
0.01339
0.0531317
0.0750101
0.0435521
0.146343
0.637053
0.863875
0.931685
0.77975
0.529969
0.975752
0.37308
0.751107
0.817474
0.596249
0.524673
0.41647
0.277444
0.230998
0.310296
0.38833
0.343009
0.251808
0.160353
0.572568
0.950084
0.910711
0.75409
0.933976
0.896263
0.501558
0.760469
1.10542
1.08701
1.00853
1.00903
1.00531
0.9603
1.02919
1.07269
0.999949
0.874388
0.716747
0.508142
0.513528
0.617319
0.920016
1.0732
0.719083
0.522322
0.757477
1.05059
1.01624
1.00785
1.00711
1.00678
1.00777
1.00885
1.00992
1.06035
1.09882
1.05934
1.03399
1.01682
1.11407
1.20947
1.11052
0.839125
0.440456
0.745228
1.00774
1.00733
1.00724
1.00422
0.999409
1.00245
1.00801
1.00868
1.00744
1.00973
1.01001
1.01
1.01549
1.1596
1.21422
1.23659
1.17219
0.785571
0.648626
1.00767
1.00754
1.00763
1.03511
1.23976
1.53798
1.73675
1.7841
1.63116
1.48605
1.47862
1.61015
1.7748
1.83353
1.8409
1.69348
1.54728
1.41158
0.836283
1.00745
1.09636
1.51533
2.27184
2.77064
2.93262
2.98458
2.98705
2.94268
2.89881
2.89983
2.94225
2.96235
2.96685
2.94607
2.92256
2.80371
2.53978
2.28701
2.80285
2.91829
2.95956
2.97516
2.99749
3
2.99997
2.99975
2.99904
2.99888
2.99948
2.99985
2.99992
2.99992
2.99996
2.99999
3
3
2.99928
2.99743
2.99797
2.99975
3
3
3
2.99999
2.99947
2.99884
2.99884
2.99884
2.99946
2.99948
2.99966
2.99989
2.99995
2.99996
2.99999
3
2.99997
2.99998
2.99999
2.99999
3
3
3
2.99997
2.99972
2.99944
2.99952
2.99899
2.99897
2.99905
2.99968
2.99981
2.99986
2.99997
3
2.99886
2.99973
2.99993
2.99998
3
3
3
3
3
3
2.99997
2.99991
2.99953
2.99929
2.99966
2.99978
2.99985
2.99996
3
2.99841
2.99838
2.99947
2.99958
2.99968
2.99993
3
3
3
3
3
2.99999
2.99995
2.99995
2.99989
2.99984
2.99988
2.99999
3
2.99895
2.99966
2.99934
2.99902
2.99903
2.99912
2.99969
2.99996
3
3
3
3
2.9998
2.99988
2.99999
2.99994
3
3
2.99999
3
3
2.99999
2.99967
2.99909
2.99903
2.99905
2.99927
2.99967
2.99997
3
2.99997
2.99958
2.99974
2.99999
3
3
3
2.99999
3
3
3
3
2.99993
2.9994
2.99906
2.99911
2.99924
2.99941
2.99977
2.99956
2.99955
2.99976
2.99998
3
3
3
2.99999
3
3
3
3
3
2.99999
2.9999
2.99951
2.99925
2.99925
2.99925
2.99924
2.99964
2.99994
2.99999
3
3
3
2.99999
3
3
3
3
3
3
3
3
2.99997
2.99971
2.99961
2.9998
2.99997
3
3
3
3
3
2.99999
3
3
3
3
3
3
3
3
3
3
2.99999
3
3
3
3
3
3
3
2.99999
3
3
3
3
3
3
3
3
3
3
3
3
3
3
3
3
3
3
2.99999
3
3
3
3
3
3
3
3
3
3
3
3
3
3
3
3
3
3
3
3
3
3
3
3
3
3
3
3
3
3
3
3
3
3
3
3
2.99998
3
3
3
3
3
3
3
3
3
3
3
3
3
3
3
3
3
3
2.99998
2.99999
3
3
3
3
3
3
3
3
3
3
3
3
3
3
3
3
3
2.99998
2.99999
3
3
3
3
3
3
3
3
3
3
3
3
3
3
3
3
3
2.99998
3
3
3
3
3
3
3
3
3
3
3
3
3
3
3
3
3
3
3
3
3
3
3
3
3
3
3
3
3
3
3
3
3
3
3
3
3
3
3
3
3
3
3
3
3
3
3
3
3
3
3
3
3
3
3
3
3
3
3
3
3
3
3
3
3
3
3
3
3
3
3
3
3
3
3
3
3
3
3
3
3
3
3
3
3
3
3
3
3
3
3
3
3
3
3
3
3
3
3
3
3
3
3
3
3
3
3
3
3
3
3
3
3
3
3
3
3
3
3
3
3
3
3
3
3
3
3
3
3
3
3
3
3
3
3
3
3
3
3
3
3
3
3
3
3
3
3
3
3
3
3
3
3
3
3
3
3
3
3
3
3
3
3
3
3
3
3
3
3
3
3
3
3
3
3
3
3
3
3
3
3
3
3
3
3
3
3
3
3
3
3
3
3
3
3
3
3
3
3
3
3
3
3
3
3
3
3
3
3
3
3
3
3
3
3
3
3
3
3
3
3
3
3
3
3
3
3
3
3
3
3
3
3
3
3
3
3
3
3
3
3
3
3
3
3
3
3
3
3
3
3
3
3
3
3
3
3
3
3
3
3
3
3
3
3
3
3
3
3
3
3
3
3
3
3
3
3
3
3
3
3
3
3
3
3
3
)
;

boundaryField
{
    leftWall
    {
        type            calculated;
        value           nonuniform List<scalar> 
50
(
2
2
2
2
2
1.68448
1.22977
0.670383
0.911128
1.19001
1.21475
1.0524
1.04099
1.04311
1.58536
2.45898
2.99987
2.9999
3
3
3
3
3
3
3
3
3
3
3
3
3
3
3
3
3
3
3
3
3
3
3
2.99999
2.99994
2.99994
2.99994
2.99994
2.99995
3
3
3
)
;
    }
    rightWall
    {
        type            calculated;
        value           nonuniform List<scalar> 
50
(
1.94197
1.89713
1.39812
0.539631
0.416666
0.140244
0.102679
0.10366
0.111283
0.378213
0.701757
0.751107
0.760469
0.757477
0.745228
0.648626
0.836283
2.28701
2.99928
3
3
3
3
2.99999
2.99999
2.99999
2.99999
2.99999
2.99999
2.99999
3
3
2.99999
2.99999
3
3
3
3
3
3
3
3
3
3
3
3
3
3
3
3
)
;
    }
    lowerWall
    {
        type            calculated;
        value           nonuniform List<scalar> 
62
(
2
2
2
2
2
2
2
2
2
2
2
2
2
2
2
2
2
2
2
2
2
1.99995
1.99994
1.99994
1.99996
2
2.00002
1.81903
0.403771
0.0140694
0.0135518
0.138251
0.295678
0.747167
0.729824
1.78782
1.78562
1.77094
1.49492
0.760844
0.443887
0.400886
0.82333
1.78782
1.87915
1.87892
1.87351
1.88593
1.89439
1.91107
1.91441
1.9214
1.9221
1.9216
1.92977
1.93366
1.92966
1.93164
1.93238
1.93241
1.93775
1.94197
)
;
    }
    atmosphere
    {
        type            calculated;
        value           nonuniform List<scalar> 
46
(
3
3
2.99999
2.99999
3
3
3
3
3
3
3
3
3
3
3
3
3
3
3
3
3
3
3
3
3
3
3
3
3
3
3
3
3
3
3
3
3
3
3
3
3
3
3
3
3
3
)
;
    }
    defaultFaces
    {
        type            empty;
    }
}


// ************************************************************************* //
