/*--------------------------------*- C++ -*----------------------------------*\
| =========                 |                                                 |
| \\      /  F ield         | OpenFOAM: The Open Source CFD Toolbox           |
|  \\    /   O peration     | Version:  2312                                  |
|   \\  /    A nd           | Website:  www.openfoam.com                      |
|    \\/     M anipulation  |                                                 |
\*---------------------------------------------------------------------------*/
FoamFile
{
    version     2.0;
    format      ascii;
    arch        "LSB;label=32;scalar=64";
    class       volScalarField;
    location    "1.95";
    object      alpha.oil;
}
// * * * * * * * * * * * * * * * * * * * * * * * * * * * * * * * * * * * * * //

dimensions      [0 0 0 0 0 0 0];

internalField   nonuniform List<scalar> 
2268
(
8.05372e-10
3.37503e-10
6.11201e-11
8.50478e-12
1.40332e-12
9.81234e-13
2.63244e-12
8.54311e-12
1.66339e-11
3.0588e-11
4.33832e-11
4.98785e-11
5.44035e-11
6.9392e-11
9.57764e-11
1.50181e-10
2.48298e-10
4.00713e-10
5.17906e-10
5.18019e-10
3.6898e-06
5.20859e-05
6.18317e-05
1.32039e-09
5.14964e-10
7.82138e-11
1.15433e-11
4.46045e-12
6.59476e-12
4.01152e-11
9.81145e-11
2.04677e-10
3.27717e-10
3.88798e-10
3.65433e-10
2.31878e-10
1.80624e-10
1.94786e-10
3.16938e-10
5.16429e-10
1.08327e-09
2.07939e-09
5.18111e-10
9.42369e-07
2.08139e-05
4.17759e-05
1.16394e-09
4.0562e-10
5.06292e-11
7.3413e-12
3.6814e-12
3.6831e-12
1.55982e-10
4.69926e-10
8.61885e-10
1.05025e-09
9.96602e-10
9.29918e-10
5.27138e-10
3.11802e-10
2.43966e-10
2.0796e-10
2.21628e-10
2.25317e-09
1.52712e-08
1.01646e-07
1.98949e-07
5.68694e-09
2.1461e-15
4.63864e-10
1.76199e-10
1.32209e-10
1.06791e-09
4.12547e-09
2.43827e-09
1.10433e-10
3.15121e-10
4.80032e-10
5.26051e-10
4.0195e-10
4.00862e-10
3.45275e-10
2.82248e-10
2.61666e-10
1.29973e-10
1.44232e-10
-1.67065e-24
-3.59563e-26
2.29494e-26
7.23992e-25
2.17157e-10
2.1461e-15
3.86798e-11
3.84895e-11
2.98894e-10
2.98685e-10
4.76442e-06
2.26503e-08
4.94749e-12
8.55392e-14
1.21804e-13
7.62732e-14
9.99979e-07
4.03239e-10
9.06192e-09
-5.12141e-14
-2.2544e-13
8.68939e-08
5.12072e-06
2.01787e-05
3.03697e-05
5.48089e-05
0.000555133
0.00195511
0.000717849
3.84895e-11
0.0137366
0.0234956
0.00259595
3.9816e-24
4.70778e-23
7.99662e-25
7.77531e-06
0.000199391
0.000295028
0.000109075
6.23764e-05
8.64461e-05
4.93678e-05
1.81563e-06
4.38555e-06
6.53648e-05
0.00012479
0.000145054
0.000267432
0.00253654
0.0102584
0.0104687
0.263372
0.0813869
0.000609299
0.00183812
3.06356e-05
0.000855873
0.00132139
0.0014628
0.00146209
0.00074677
0.000179997
0.000155107
0.000179148
0.000166439
3.19064e-05
1.17816e-05
7.11422e-05
8.51472e-05
7.48826e-05
0.00020958
0.0047621
0.0117544
0.0119692
0.637003
8.21937e-05
8.00478e-05
0.000169996
0.0001785
0.000713157
0.000905799
0.00092445
0.000645801
0.000211302
8.77183e-05
7.11819e-05
0.000127191
0.000112052
4.39889e-05
4.39399e-06
1.11138e-06
1.21392e-06
8.52977e-07
2.0525e-05
0.000148559
0.00164619
0.00971569
0.0541802
0.0551748
0.0556205
0.0546023
0.0545923
0.0545739
0.0462178
0.0444997
0.0409182
0.042306
0.0422331
0.0280722
0.0233798
0.0233798
0.0233798
0.0234757
0.0234981
0.0286677
0.0341956
0.0541397
0.0567509
0.0989141
0.103759
0.218686
0.29221
0.262157
0.198933
0.142763
0.161155
0.298327
0.366133
0.360877
0.301835
0.209661
0.091388
0.0601934
0.0769523
0.0891584
0.132752
0.304726
0.488453
0.524901
0.530454
0.530452
0.530454
0.39609
0.186702
0.162148
0.172375
0.402935
0.579563
0.58191
0.547314
0.538879
0.463175
0.41873
0.468019
0.420924
0.421144
0.208299
0.269456
0.381298
0.343477
0.279907
0.334809
0.44058
0.281322
0.173014
0.386553
0.651686
0.617557
0.577155
0.576929
0.461336
0.343344
0.477532
0.236487
0.0998395
0.0870391
0.146955
0.110373
0.0366185
0.0367177
0.088154
0.574129
0.671014
0.468858
0.620026
0.652036
0.651719
0.465449
0.277961
0.0955633
0.0938788
0.413134
0.100339
0.100278
0.360804
0.463705
0.248686
0.045287
0.135008
0.362609
0.706134
0.721522
0.699976
0.642865
0.651931
0.419882
0.0869216
0.0948643
0.0903283
0.0902893
0.136784
0.242583
0.464728
0.629624
0.44997
0.124015
0.362306
0.631121
0.721559
0.721606
0.721648
0.64501
0.562984
0.519374
0.165016
0.0868873
0.0890259
0.0954623
0.0902776
0.0930771
0.67888
0.678699
0.219886
0.0364816
0.257163
0.682837
0.67938
0.687526
0.52976
0.342956
0.130978
0.0703095
0.0776838
0.0811197
0.175049
0.257401
0.310159
0.211539
0.092127
0.848221
0.192647
0.000670528
-1.17846e-13
-2.24437e-08
-4.54688e-08
2.41534e-10
0.000920773
-2.49238e-07
-2.23773e-07
-1.06901e-07
-9.87536e-08
-1.46039e-07
-1.63236e-07
-4.91718e-08
2.39753e-08
-1.22811e-11
-3.34807e-12
5.21728e-22
8.5298e-07
8.52165e-07
1.91637e-06
0.00333034
0.863094
0.85414
0.499975
0.335468
0.385666
0.401949
0.382052
0.340063
0.286987
0.33044
0.288098
0.174774
0.145868
0.192864
0.31009
0.389627
0.392347
0.34505
0.301848
0.268512
0.189107
0.092337
0.0157645
0.890647
0.929547
0.986412
0.964271
0.974698
0.971384
0.982654
0.98628
0.993584
0.978955
0.918096
0.849356
0.793441
0.780631
0.866147
0.967546
0.967262
0.951699
0.939385
0.920472
0.862505
0.670113
0.19027
0.973784
0.987771
0.995432
0.996005
0.996008
0.989567
0.985842
0.990378
0.997192
0.999292
0.999287
0.999291
0.999276
0.999168
0.981664
0.963495
0.979313
0.97931
0.979322
0.979318
0.979289
0.968834
0.763359
0.979476
0.984519
0.993016
0.996008
0.948612
0.964276
0.998859
0.998844
0.99356
0.964241
0.933934
0.914054
0.885301
0.82589
0.764275
0.701976
0.645584
0.769328
0.930267
0.979327
0.97942
0.975913
0.926661
0.97838
0.867333
0.980045
0.995849
0.822035
0.759052
0.795566
0.710855
0.503536
0.310328
0.218066
0.177543
0.138672
0.090544
6.69306e-05
0.00884402
0.0382292
0.142435
0.443048
0.816208
0.981337
0.994406
0.986974
0.707258
0.779482
0.905861
0.819567
0.706423
0.513012
0.251021
0.0504649
9.2357e-13
8.61177e-13
2.65201e-13
-2.2869e-09
-3.95744e-25
-7.39841e-21
4.34966e-05
5.48526e-11
4.93578e-06
0.0261495
0.519184
0.961805
0.994936
0.994932
0.994904
0.270446
0.33656
0.345898
0.263657
0.12288
0.00827768
4.23925e-08
4.43469e-08
1.36267e-06
6.89311e-06
1.21785e-05
1.61561e-05
7.22289e-06
8.31455e-07
4.08641e-06
4.47699e-06
0.100064
0.698758
0.966415
0.99493
0.994932
0.994931
0.994758
-9.17833e-21
9.82413e-26
2.8984e-24
3.14159e-07
2.15885e-08
9.09964e-09
5.14669e-07
2.97657e-06
3.51397e-05
0.000108455
3.95562e-05
3.18674e-07
5.33192e-06
1.32493e-09
8.22134e-11
0.0111778
0.568836
0.954153
0.961936
0.994927
0.994931
0.994927
0.994883
1.75732e-07
1.37743e-06
3.28784e-06
3.61544e-06
1.81349e-06
4.00129e-07
1.44562e-07
2.17956e-05
0.000184205
0.000185414
5.94457e-05
5.83841e-10
2.72312e-07
5.1336e-09
7.13613e-11
8.27472e-11
0.109052
0.636049
0.883743
0.949114
0.98729
0.992691
0.991851
1.12411e-06
3.97311e-06
4.72831e-06
4.7303e-06
2.76317e-06
3.35989e-07
1.4448e-07
5.94652e-06
0.000142943
0.000187164
5.17892e-05
1.21997e-09
3.31339e-08
2.80926e-08
4.49763e-10
1.98544e-10
1.96069e-18
1.10194e-10
-2.97337e-19
0.165974
0.509072
0.65637
0.594124
1.22797e-07
1.12038e-08
2.7096e-06
2.95797e-06
6.85406e-08
5.26996e-08
5.31783e-08
2.63301e-07
1.94637e-05
6.65722e-05
2.20295e-05
1.08059e-09
1.08718e-08
3.39198e-08
6.5943e-10
1.07701e-08
1.01241e-08
3.30734e-08
2.1358e-08
5.32131e-22
-9.13892e-23
3.55069e-22
2.93178e-21
7.34905e-09
7.31841e-09
1.76777e-08
1.28028e-07
6.90258e-08
2.81319e-08
7.71635e-08
1.26458e-07
2.7591e-09
2.98554e-09
2.82529e-08
6.57994e-07
1.37644e-08
2.83581e-08
4.84766e-08
3.42321e-07
2.72898e-06
3.59289e-08
5.62976e-06
9.48943e-05
0.000200566
0.0013879
0.0013957
2.93665e-08
1.81535e-07
3.98909e-07
5.71716e-07
2.47512e-07
2.78615e-08
8.47376e-08
1.27382e-07
2.85505e-08
2.75817e-09
7.39463e-08
8.63222e-07
2.53586e-07
3.12506e-08
1.47605e-07
2.14232e-07
3.92554e-08
2.91589e-05
6.32062e-05
6.35443e-05
6.94586e-05
0.000305715
0.000609255
1.29519e-07
7.03111e-07
7.02465e-07
6.84046e-07
5.21149e-07
5.31588e-08
6.42179e-08
9.82642e-08
2.3478e-08
3.12033e-09
2.16489e-08
2.39296e-07
3.51838e-07
9.07521e-08
1.1789e-07
6.02623e-08
3.93765e-08
1.25362e-05
6.16932e-05
5.8525e-05
1.02581e-05
7.80204e-06
0.000252898
1.34595e-07
4.53054e-07
5.70934e-07
5.26033e-07
3.08619e-07
6.69565e-08
2.52055e-08
5.42364e-09
4.80407e-09
5.54949e-09
5.474e-09
2.49294e-09
2.14317e-07
8.2409e-08
2.84689e-08
2.17641e-08
2.1436e-07
1.67158e-06
6.76767e-06
5.06537e-06
1.12605e-06
4.94339e-07
6.99674e-09
4.86814e-08
3.19371e-08
3.89227e-08
2.55266e-08
1.59204e-08
3.51787e-08
1.19092e-08
1.19704e-09
1.9817e-09
4.85369e-09
5.23927e-09
2.48374e-09
1.1396e-08
1.97415e-08
7.39515e-09
2.07993e-08
1.33194e-07
2.40722e-09
2.40903e-09
2.40551e-09
2.62509e-09
2.62635e-09
6.91265e-09
9.72642e-09
2.27937e-09
2.53091e-09
1.75529e-09
1.72758e-09
2.01675e-09
1.56277e-09
1.1969e-09
1.60097e-09
3.0887e-09
3.87335e-09
2.4831e-09
1.47243e-09
2.17585e-09
2.52087e-09
1.63506e-08
1.06171e-08
2.90928e-09
2.40905e-09
2.40596e-09
5.96182e-09
2.41661e-08
2.6432e-08
1.08093e-08
2.45236e-09
2.43663e-09
2.3133e-09
1.89232e-09
1.50881e-09
1.35329e-09
1.2302e-09
1.25305e-09
1.62358e-09
2.06192e-09
1.80789e-09
1.31232e-09
1.29624e-09
1.70059e-09
3.45919e-09
2.08114e-09
2.80459e-09
2.75822e-09
2.40589e-09
1.35184e-08
2.7882e-08
3.00051e-08
1.19109e-08
3.44788e-09
3.62555e-09
3.35452e-09
2.54455e-09
1.96077e-09
1.61237e-09
1.34264e-09
1.1138e-09
1.03557e-09
1.09062e-09
1.03343e-09
9.43191e-10
1.08927e-09
1.43212e-09
1.58424e-09
2.06793e-09
3.10634e-09
3.40425e-09
3.57872e-09
7.92879e-09
2.09308e-08
2.31256e-08
1.00434e-08
4.11694e-09
4.34127e-09
3.80697e-09
2.75374e-09
2.14499e-09
1.78805e-09
1.46149e-09
1.1212e-09
8.38949e-10
6.67144e-10
5.78717e-10
5.77295e-10
7.15174e-10
9.87464e-10
1.31495e-09
1.7906e-09
2.58306e-09
3.26866e-09
4.57425e-09
6.3081e-09
1.04357e-08
1.35635e-08
4.42722e-09
4.26193e-09
4.6279e-09
3.82429e-09
3.19033e-09
2.97432e-09
1.89258e-09
1.57904e-09
1.21025e-09
8.10219e-10
5.26346e-10
3.84165e-10
3.39092e-10
4.00212e-10
5.60775e-10
8.16674e-10
1.20877e-09
1.75742e-09
2.3483e-09
3.83635e-09
4.64103e-09
6.45979e-09
8.03435e-09
4.33818e-09
4.39183e-09
4.7156e-09
3.49558e-09
3.37631e-09
4.30201e-09
2.01536e-09
1.72108e-09
1.36853e-09
8.47374e-10
4.85331e-10
2.97068e-10
2.12103e-10
2.0936e-10
2.72854e-10
4.04941e-10
6.22282e-10
9.38102e-10
1.33944e-09
2.19669e-09
2.73035e-09
3.36327e-09
4.06259e-09
5.52534e-08
4.45041e-09
4.53902e-09
3.35009e-09
3.37228e-09
4.21496e-09
2.08158e-09
1.95356e-09
1.61799e-09
9.20361e-10
4.72375e-10
2.55632e-10
1.53149e-10
1.1395e-10
1.21546e-10
1.68568e-10
2.55999e-10
3.90551e-10
6.02669e-10
9.36891e-10
1.17904e-09
1.44742e-09
1.6867e-09
7.25184e-08
5.58761e-09
5.94966e-09
3.42164e-09
4.30777e-09
2.998e-09
2.09609e-09
2.23579e-09
1.94908e-09
1.02546e-09
4.78083e-10
2.34126e-10
1.22531e-10
7.24081e-11
5.60925e-11
6.32415e-11
8.79481e-11
1.39054e-10
2.06084e-10
3.32674e-10
4.10468e-10
4.75322e-10
6.44141e-10
7.2232e-08
7.10663e-09
1.62805e-08
1.37217e-07
9.72047e-08
2.15406e-09
2.1005e-09
2.63045e-09
2.38057e-09
1.14776e-09
4.96334e-10
2.21276e-10
1.05748e-10
5.39196e-11
3.10575e-11
2.46672e-11
2.83195e-11
4.02368e-11
6.01856e-11
9.53147e-11
1.17536e-10
1.46926e-10
1.93679e-10
3.41548e-08
1.07365e-08
6.88279e-08
3.14189e-07
3.08139e-07
4.85127e-09
2.10733e-09
3.22756e-09
2.89981e-09
1.3288e-09
5.26088e-10
2.15545e-10
9.44769e-11
4.35797e-11
2.12753e-11
1.20069e-11
9.46013e-12
1.0786e-11
1.47057e-11
2.27547e-11
2.86743e-11
3.26717e-11
5.07832e-11
1.1146e-08
1.11502e-08
1.40784e-07
3.14189e-07
3.142e-07
1.82618e-08
2.1155e-09
4.17503e-09
3.61355e-09
1.60695e-09
5.94894e-10
2.25117e-10
8.80934e-11
3.68178e-11
1.62324e-11
7.58411e-12
4.12534e-12
3.17061e-12
3.41481e-12
4.79558e-12
5.74722e-12
7.27742e-12
1.09745e-11
1.28857e-07
1.25578e-08
1.33744e-07
3.142e-07
3.14199e-07
1.92726e-08
2.15203e-09
5.5339e-09
4.82457e-09
2.16359e-09
7.51485e-10
2.61957e-10
8.93398e-11
3.32278e-11
1.30859e-11
5.44645e-12
2.41161e-12
1.24785e-12
9.03517e-13
9.91607e-13
1.1327e-12
1.37366e-12
2.65165e-12
2.24461e-07
3.19967e-08
6.12688e-08
1.34148e-07
3.14211e-07
1.71058e-07
7.74609e-09
1.32302e-08
7.85661e-09
3.5982e-09
1.14613e-09
3.68506e-10
1.1578e-10
3.54923e-11
1.15581e-11
4.18277e-12
1.61188e-12
6.6325e-13
3.31412e-13
2.46647e-13
2.30523e-13
3.20639e-13
6.9622e-13
2.22792e-07
5.62153e-08
9.79783e-09
5.16338e-08
8.8253e-08
4.12209e-07
1.55811e-07
3.44029e-08
1.27182e-08
7.75296e-09
2.69592e-09
7.41222e-10
2.06644e-10
5.53148e-11
1.45829e-11
4.05934e-12
1.22694e-12
4.16245e-13
1.5661e-13
8.07689e-14
6.35142e-14
9.82052e-14
2.50955e-13
1.15243e-07
3.83221e-08
9.79783e-09
9.82569e-09
9.82656e-08
4.12798e-07
4.12209e-07
4.44895e-08
1.39925e-08
2.80114e-08
1.07305e-08
1.81529e-09
4.2859e-10
1.14186e-10
2.72404e-11
6.25955e-12
1.39611e-12
3.38866e-13
9.37411e-14
3.40501e-14
1.98736e-14
3.27562e-14
9.47033e-14
3.6958e-07
9.81375e-09
9.79783e-09
1.02349e-07
3.96321e-07
4.12209e-07
2.87161e-07
6.11276e-08
2.25772e-07
1.22557e-07
9.95525e-09
2.43115e-09
7.20105e-10
2.01669e-10
4.84561e-11
1.06768e-11
2.15894e-12
4.11708e-13
7.72041e-14
1.78835e-14
7.22122e-15
1.04595e-14
4.0172e-14
2.25328e-06
2.44616e-07
9.79783e-09
6.36757e-07
3.61994e-07
1.7069e-07
9.47193e-08
4.48942e-07
8.85373e-07
3.48033e-07
1.07116e-08
3.17063e-09
9.60975e-10
2.7184e-10
6.84821e-11
1.51335e-11
2.91577e-12
5.13154e-13
8.42235e-14
1.41783e-14
2.94226e-15
3.69158e-15
1.25471e-14
2.89084e-05
1.98701e-05
7.9132e-06
7.94856e-07
5.51185e-08
4.41553e-08
8.75701e-08
8.53145e-07
8.85205e-07
3.3571e-07
1.1496e-08
2.8468e-09
7.62817e-10
2.08741e-10
5.67092e-11
1.38754e-11
3.13127e-12
5.74295e-13
9.01456e-14
1.27725e-14
1.85848e-15
1.00198e-15
4.03504e-15
2.95866e-05
2.95866e-05
2.16887e-05
6.67965e-07
4.41553e-08
4.41552e-08
3.05029e-07
8.53584e-07
7.67101e-07
8.41891e-08
8.5212e-09
1.93471e-09
5.00494e-10
1.52663e-10
4.4936e-11
1.20868e-11
2.69519e-12
4.98227e-13
7.70404e-14
1.03316e-14
1.16739e-15
3.71371e-16
1.09938e-15
2.95866e-05
2.36565e-05
9.20412e-06
1.01745e-07
4.41552e-08
4.41553e-08
3.8016e-07
7.11453e-07
2.05845e-07
1.35372e-08
3.91739e-09
1.01176e-09
3.06667e-10
9.97779e-11
2.99873e-11
7.9852e-12
1.74796e-12
3.14791e-13
4.69981e-14
5.93188e-15
7.04973e-16
8.99255e-17
3.16139e-16
2.95866e-05
2.90513e-06
5.91221e-08
4.57137e-08
4.47142e-08
4.42905e-08
2.35858e-07
1.15612e-07
1.61588e-08
5.97801e-09
1.84283e-09
5.69422e-10
1.83665e-10
5.65173e-11
1.60618e-11
3.86698e-12
7.92465e-13
1.35364e-13
1.92969e-14
2.327e-15
2.22838e-16
3.36988e-17
7.19009e-17
2.11274e-05
7.75637e-06
5.74876e-08
1.36981e-06
4.65995e-08
2.12606e-06
3.6408e-07
1.00814e-08
6.51475e-09
2.76392e-09
8.8998e-10
2.70454e-10
8.04933e-11
2.22476e-11
5.63156e-12
1.23727e-12
2.36857e-13
3.82805e-14
5.20135e-15
5.86385e-16
5.75938e-17
8.32412e-18
1.5981e-17
7.33801e-07
3.26736e-05
3.19778e-05
3.46475e-05
3.43263e-05
1.12383e-05
4.94789e-09
6.99154e-09
3.59045e-09
1.26023e-09
3.63227e-10
9.7626e-11
2.50047e-11
6.16325e-12
1.34635e-12
2.65716e-13
4.69945e-14
7.10062e-15
9.226e-16
1.02191e-16
1.02536e-17
1.6867e-18
3.19327e-18
4.0325e-09
1.65748e-05
3.31527e-05
3.50016e-05
3.05542e-05
7.57755e-06
4.9382e-09
4.93295e-09
1.74743e-09
4.90083e-10
1.17361e-10
2.70673e-11
5.90116e-12
1.18538e-12
2.25473e-13
4.01699e-14
6.65682e-15
9.70605e-16
1.23441e-16
1.39888e-17
1.69505e-18
3.31639e-19
5.74649e-19
4.0325e-09
8.70773e-08
3.72641e-06
4.8746e-06
2.31998e-06
5.58577e-07
1.24308e-08
2.55517e-09
6.49768e-10
1.4996e-10
3.16067e-11
5.96072e-12
1.05425e-12
1.78256e-13
2.97385e-14
4.82976e-15
7.44565e-16
1.05478e-16
1.33566e-17
1.70382e-18
2.89666e-19
7.23275e-20
9.48565e-20
0.00727162
0.142637
0.605028
0.681203
0.0183944
0.0552368
0.43861
0.662991
0.0743563
0.470649
0.764802
0.448886
0.698864
0.923608
0.962892
0.513704
0.953533
0.982426
0.982313
0.923602
0.987152
0.971887
0.939847
0.939187
0.985934
0.95519
0.940052
0.952721
0.98208
0.980363
0.994074
0.994851
0.994176
0.994864
0.995201
0.995202
0.992348
0.995205
0.995201
0.995202
0.158119
0.0810619
0.114214
0.122615
1.78856e-22
6.31429e-10
8.654e-10
6.40939e-10
0.000598404
6.74401e-05
7.04768e-05
6.94649e-05
0.000309623
0.000541685
0.000760293
0.000767215
0.000306065
8.24459e-05
0.000148489
0.000764754
7.0791e-09
7.78148e-09
7.7157e-09
0.000135327
9.55595e-09
1.3882e-08
1.95568e-08
1.50432e-08
2.23049e-08
2.50845e-08
2.5342e-08
2.12269e-08
2.79237e-08
2.53203e-08
2.12311e-08
1.94383e-08
2.20824e-08
2.01935e-08
1.8919e-08
1.59903e-08
1.44163e-08
1.65222e-08
1.50261e-08
1.27555e-08
9.39307e-09
9.39204e-09
9.08501e-09
8.76935e-09
4.31155e-09
4.59553e-09
4.8289e-09
5.3902e-09
1.93489e-09
2.01114e-09
2.36145e-09
2.86189e-09
7.23049e-10
8.23559e-10
9.89559e-10
1.21835e-09
2.41707e-10
2.73502e-10
3.30334e-10
4.39548e-10
6.23897e-11
7.6819e-11
1.04045e-10
1.38177e-10
1.46856e-11
1.81672e-11
2.407e-11
3.573e-11
3.36586e-12
4.53503e-12
7.27991e-12
1.14344e-11
1.03539e-12
1.64121e-12
2.77042e-12
5.26136e-12
4.48862e-13
7.69087e-13
1.73391e-12
3.06013e-12
2.08032e-13
4.28066e-13
8.51625e-13
1.99505e-12
8.07221e-14
1.69536e-13
5.5721e-13
1.09877e-12
3.7682e-14
8.95377e-14
2.16703e-13
6.13948e-13
1.07641e-14
2.75061e-14
1.04963e-13
2.44878e-13
4.20581e-15
1.18602e-14
3.31883e-14
1.00552e-13
1.08747e-15
3.20635e-15
1.29686e-14
3.51721e-14
3.28527e-16
1.13699e-15
3.50548e-15
1.10618e-14
6.91771e-17
2.50053e-16
9.31439e-16
2.62616e-15
1.64693e-17
6.17844e-17
1.92157e-16
6.1244e-16
3.32682e-18
1.27552e-17
4.07114e-17
1.26373e-16
5.89613e-19
2.09329e-18
7.00116e-18
2.07037e-17
0.680645
0.252903
6.97829e-05
0.0264634
0.464707
0.6292
0.184477
3.14789e-05
0.0116718
0.00161016
5.72975e-06
5.44662e-06
0.00380713
0.209498
0.39044
0.390325
0.370421
0.228029
0.0921261
0.486126
8.17917e-05
7.21865e-05
0.0258472
0.054602
0.058669
0.0297092
3.04624e-05
2.70766e-05
2.28261e-05
1.50771e-05
6.39193e-06
0.000306078
0.19791
0.387843
0.334738
0.0870437
0.0870114
0.274797
0.0447649
3.33459e-05
-4.06053e-11
-3.83893e-11
-9.51973e-13
1.26551e-15
5.65214e-08
0.00021684
0.000299368
0.000149626
0.000262307
0.00217313
0.00170684
0.194506
0.372038
0.242355
0.315992
0.086928
0.556275
0.0772265
-1.3141e-24
-4.0264e-20
-5.31794e-20
-7.07945e-21
-2.07483e-20
-6.5818e-21
-3.2572e-20
-1.06926e-20
1.40041e-20
1.82238e-06
0.160364
0.384822
0.450216
0.377684
0.36935
0.39478
0.124757
0.60553
0.654127
0.426603
0.352611
0.329311
0.257447
0.204618
0.155631
0.115255
0.069945
0.0255107
0.0191146
0.247282
0.472979
0.493162
0.569432
0.716454
0.326832
0.19143
0.624799
0.943073
0.952817
0.993416
0.992903
0.989627
0.93303
0.859695
0.802036
0.728811
0.611289
0.517525
0.461745
0.460034
0.52219
0.767589
0.705011
0.182962
0.184418
0.624708
0.973769
0.990878
0.994499
0.9945
0.994501
0.994502
0.994503
0.99446
0.96926
0.950027
0.969774
0.980457
0.962833
0.938523
0.890254
0.633296
0.36839
0.230912
0.594977
0.995192
0.995082
0.994498
0.994499
0.993928
0.991594
0.99143
0.992116
0.994246
0.994309
0.994245
0.994192
0.991438
0.917035
0.800939
0.715514
0.766169
0.647593
0.47575
0.995202
0.995201
0.99442
0.970096
0.855287
0.706398
0.619612
0.598039
0.678086
0.753878
0.757471
0.68997
0.603212
0.56133
0.560581
0.647663
0.720773
0.725156
0.496928
0.995177
0.943492
0.717373
0.3369
0.087504
0.0155759
8.90416e-20
4.6911e-08
0.0233081
0.0462433
0.045217
0.0229234
0.0130969
0.0117305
0.0221497
0.0337949
0.0931035
0.225784
0.337476
0.0711147
0.0137767
1.89453e-16
-4.14116e-10
-5.01776e-18
3.81641e-08
2.7376e-08
9.30599e-08
4.16274e-13
5.49521e-13
-3.35802e-22
-1.982e-09
2.99983e-11
3.29842e-09
2.63252e-11
4.17339e-07
5.22922e-07
3.50581e-08
1.97056e-09
4.96008e-10
4.88383e-10
2.32425e-07
1.26654e-06
2.10185e-06
2.10726e-06
4.79608e-06
1.67648e-05
1.921e-05
1.65886e-05
1.8874e-05
1.77734e-05
8.52286e-06
3.00689e-07
3.20125e-06
1.8166e-05
1.89434e-05
2.92557e-06
1.88056e-08
1.73721e-05
5.57646e-06
2.05467e-06
2.0813e-06
2.39197e-06
2.05635e-06
2.28166e-06
1.4769e-05
2.60259e-05
3.35155e-05
3.45354e-05
3.45679e-05
3.21629e-05
3.83817e-06
1.31282e-05
6.61045e-05
6.93552e-05
1.43746e-05
1.90301e-08
0.000496599
0.000104847
1.05261e-05
1.88147e-06
1.81044e-06
1.73124e-06
6.8651e-07
1.36587e-09
1.34262e-09
1.3496e-09
2.95781e-06
2.58408e-05
2.87712e-05
6.01896e-06
4.26551e-05
6.93552e-05
6.93522e-05
2.03103e-05
1.92492e-08
0.000764784
0.000723716
0.000181984
0.000143473
0.000127182
3.17163e-05
1.3496e-09
1.34449e-09
1.8778e-09
2.31698e-09
1.81403e-09
1.78344e-09
2.4558e-05
2.27615e-05
5.38162e-05
6.93522e-05
5.62286e-05
5.60659e-06
1.94647e-08
0.000525706
0.000129609
0.000209107
0.00036598
0.000365763
0.000341974
0.000132016
1.77425e-05
3.18821e-09
2.302e-09
2.13089e-09
5.89411e-09
9.6963e-05
5.72657e-05
3.26397e-06
2.76974e-05
1.59713e-08
1.53637e-08
2.6614e-06
1.48561e-08
1.49959e-08
1.4944e-08
8.44602e-05
0.000335265
0.00036172
0.000365009
0.000325285
0.000160561
1.51134e-05
1.74921e-08
1.19686e-05
0.000173489
9.93232e-05
2.58849e-07
9.20823e-10
1.6929e-08
1.53281e-08
6.51662e-06
1.53609e-08
1.505e-08
3.17214e-08
3.203e-08
3.17827e-08
0.000185365
0.000365151
0.000366647
0.000366588
0.000285651
0.000114841
0.000195741
0.000182096
7.91844e-05
1.43907e-07
9.76106e-10
1.47217e-08
1.52863e-08
6.51687e-06
1.49902e-08
1.55796e-08
2.26525e-07
2.44711e-07
8.00776e-08
2.53375e-08
2.99925e-05
0.000221248
0.000357847
0.000363273
0.000363697
0.000352837
0.000134625
2.36694e-09
2.46297e-09
1.53064e-09
1.41153e-08
9.82848e-09
6.40977e-06
1.43093e-08
2.17985e-08
3.34921e-07
3.48819e-07
9.17314e-08
2.53465e-08
2.35771e-08
2.38215e-08
1.26117e-05
0.000136241
0.000186504
8.86921e-05
5.7248e-09
5.79942e-09
1.08882e-08
1.10934e-08
9.82848e-09
9.85743e-09
6.50333e-06
1.3878e-08
3.12202e-08
3.17847e-08
1.86649e-08
1.49427e-08
1.49129e-08
3.59693e-08
6.36514e-08
5.88736e-08
6.55772e-09
6.51308e-09
6.55757e-09
8.63945e-09
1.39783e-08
1.62589e-08
1.50731e-08
1.2219e-08
1.23238e-08
6.50298e-06
1.13809e-08
1.41e-08
1.08481e-08
1.20566e-08
1.02359e-08
7.66695e-09
1.90914e-07
5.79884e-07
5.0839e-07
2.75996e-07
4.45352e-08
1.08921e-08
1.68894e-08
1.69003e-08
1.54173e-08
1.09539e-08
1.27447e-08
1.80796e-08
2.57545e-06
7.57323e-09
8.46067e-09
8.9765e-09
9.88465e-09
7.80592e-09
7.43624e-09
2.98971e-07
7.68027e-07
7.65194e-07
5.9735e-07
4.87505e-08
1.65712e-08
1.27354e-08
1.18962e-08
8.88027e-09
6.37636e-09
1.1894e-08
7.35989e-07
6.16687e-07
4.07565e-09
4.54138e-09
5.25541e-09
5.50328e-09
6.75381e-09
7.39172e-09
3.48845e-09
2.30789e-07
4.9189e-07
1.17733e-07
1.39245e-08
7.82581e-09
6.4273e-09
5.69686e-09
5.20745e-09
3.92264e-09
2.56312e-08
8.52778e-06
2.07663e-06
1.87212e-09
2.32712e-09
2.32531e-09
2.69291e-09
5.21408e-09
7.25751e-09
3.40982e-09
1.67482e-09
1.56705e-09
1.55399e-09
2.99572e-09
3.7507e-09
3.64586e-09
3.95072e-09
3.69468e-09
2.96723e-09
8.00854e-07
9.7456e-06
5.21975e-06
7.06385e-10
8.99489e-10
1.05089e-09
1.20671e-09
1.57123e-09
2.30957e-09
2.30863e-09
1.58421e-09
1.52688e-09
1.52525e-09
1.76963e-09
2.14017e-09
2.62069e-09
3.29985e-09
3.17162e-09
2.95275e-09
1.58633e-06
9.73572e-06
4.92611e-06
2.2996e-10
3.1507e-10
4.13457e-10
5.18573e-10
6.19893e-10
7.21062e-10
9.38029e-10
1.03279e-09
1.15756e-09
1.30071e-09
1.50386e-09
1.80662e-09
2.30987e-09
3.424e-09
3.43134e-09
2.96175e-09
8.97065e-07
8.90739e-06
8.63392e-07
6.61697e-11
1.00418e-10
1.51946e-10
2.11291e-10
2.97897e-10
4.0686e-10
5.31392e-10
6.75714e-10
8.48607e-10
1.07262e-09
1.36325e-09
1.71887e-09
2.38821e-09
4.5219e-09
4.24983e-09
3.08035e-09
7.73222e-08
1.73923e-07
4.8762e-08
2.32847e-11
3.94286e-11
6.69953e-11
1.08628e-10
1.71742e-10
2.65716e-10
3.91153e-10
5.51565e-10
7.64159e-10
1.0357e-09
1.36954e-09
1.75654e-09
2.63041e-09
6.35502e-09
5.36084e-09
4.44787e-09
4.44474e-09
4.82001e-09
4.77996e-09
1.18333e-11
2.26783e-11
4.26377e-11
7.5908e-11
1.29936e-10
2.20599e-10
3.49039e-10
5.32264e-10
7.7396e-10
1.07815e-09
1.43314e-09
1.79802e-09
2.64897e-09
7.02046e-09
1.26006e-08
7.53001e-09
9.00008e-09
9.14879e-09
2.75558e-08
7.72343e-12
1.62159e-11
3.29297e-11
6.38535e-11
1.15619e-10
2.02837e-10
3.36224e-10
5.2425e-10
7.79495e-10
1.09392e-09
1.46242e-09
1.8246e-09
2.2581e-09
2.88636e-09
1.25561e-07
1.56211e-07
2.46573e-08
2.29942e-08
2.05075e-07
5.0731e-12
1.1759e-11
2.55266e-11
5.2607e-11
1.00874e-10
1.82023e-10
3.06656e-10
4.91002e-10
7.31611e-10
1.02728e-09
1.35723e-09
1.75687e-09
2.32823e-09
2.23951e-09
1.8319e-07
3.02587e-07
1.89052e-07
8.57712e-08
2.74595e-07
3.08877e-12
7.76445e-12
1.79556e-11
3.95841e-11
8.02809e-11
1.47974e-10
2.5394e-10
4.14268e-10
6.18697e-10
8.66748e-10
1.1699e-09
1.55689e-09
2.22233e-09
2.26953e-09
4.50067e-08
3.02704e-07
3.02479e-07
3.03927e-07
2.74718e-07
1.65379e-12
4.56384e-12
1.14191e-11
2.63405e-11
5.5914e-11
1.07713e-10
1.87952e-10
3.06327e-10
4.62342e-10
6.54989e-10
8.86572e-10
1.19987e-09
1.87602e-09
3.40519e-09
2.49764e-09
1.61379e-07
3.03841e-07
3.03835e-07
1.02063e-07
7.77872e-13
2.3e-12
6.2136e-12
1.51793e-11
3.39931e-11
6.83004e-11
1.21789e-10
2.02648e-10
3.09865e-10
4.40757e-10
6.05454e-10
8.17364e-10
1.22963e-09
2.32712e-09
2.49492e-09
1.97257e-09
2.74426e-07
3.03864e-07
2.44246e-08
3.15104e-13
1.0098e-12
2.88981e-12
7.60058e-12
1.78212e-11
3.60972e-11
6.67511e-11
1.13503e-10
1.79516e-10
2.63857e-10
3.61754e-10
4.92376e-10
7.38715e-10
1.34259e-09
2.65825e-09
1.96648e-09
4.4269e-08
2.03362e-07
2.32506e-08
1.12832e-13
3.77389e-13
1.15706e-12
3.21508e-12
7.75213e-12
1.62023e-11
3.1164e-11
5.57044e-11
9.16198e-11
1.41034e-10
2.02433e-10
2.76365e-10
3.93974e-10
7.16862e-10
1.60251e-09
1.95438e-09
7.0025e-10
7.31617e-10
1.31351e-08
3.34489e-14
1.21785e-13
3.91602e-13
1.12732e-12
2.79862e-12
6.06779e-12
1.24938e-11
2.36741e-11
4.10409e-11
6.78596e-11
1.02487e-10
1.43933e-10
2.04975e-10
3.51892e-10
7.39179e-10
1.33658e-09
7.03427e-10
1.15033e-09
6.16738e-09
9.00698e-15
3.35756e-14
1.06252e-13
2.95898e-13
7.43073e-13
1.72989e-12
3.86171e-12
8.21292e-12
1.61302e-11
2.89401e-11
4.51193e-11
6.26443e-11
8.34952e-11
1.43093e-10
2.92608e-10
6.22658e-10
7.45914e-10
3.05557e-09
4.84749e-09
1.83632e-15
7.32773e-15
2.38689e-14
7.10909e-14
1.96135e-13
5.05223e-13
1.24639e-12
2.83886e-12
6.03333e-12
1.1554e-11
1.93325e-11
2.80851e-11
3.77227e-11
5.82658e-11
1.21233e-10
2.45441e-10
4.86531e-10
1.07052e-09
4.16658e-09
3.31515e-16
1.27173e-15
4.16699e-15
1.34216e-14
4.17001e-14
1.24497e-13
3.41852e-13
8.44718e-13
1.94015e-12
4.00901e-12
7.19093e-12
1.08352e-11
1.42848e-11
2.15181e-11
4.5743e-11
1.06459e-10
1.96141e-10
7.19069e-10
2.0236e-09
4.66729e-17
1.6664e-16
5.80213e-16
2.09586e-15
7.0946e-15
2.18704e-14
6.67734e-14
1.83132e-13
4.48345e-13
9.19934e-13
1.66844e-12
2.35604e-12
3.17584e-12
4.479e-12
9.72036e-12
2.40086e-11
6.07848e-11
1.30923e-10
8.62452e-11
)
;

boundaryField
{
    leftWall
    {
        type            zeroGradient;
    }
    rightWall
    {
        type            zeroGradient;
    }
    lowerWall
    {
        type            zeroGradient;
    }
    atmosphere
    {
        type            inletOutlet;
        inletValue      uniform 0;
        value           nonuniform List<scalar> 
46
(
4.0325e-09
8.70773e-08
3.72641e-06
4.8746e-06
2.31998e-06
5.58577e-07
1.24308e-08
2.55517e-09
6.49768e-10
1.4996e-10
3.16067e-11
5.96072e-12
1.05425e-12
1.78256e-13
2.97385e-14
4.82976e-15
7.44565e-16
1.05478e-16
1.33566e-17
1.70382e-18
2.89666e-19
7.23275e-20
9.48565e-20
5.89613e-19
0
0
0
0
0
0
0
0
0
0
0
0
0
0
0
0
0
0
0
0
0
0
)
;
    }
    defaultFaces
    {
        type            empty;
    }
}


// ************************************************************************* //
