/*--------------------------------*- C++ -*----------------------------------*\
| =========                 |                                                 |
| \\      /  F ield         | OpenFOAM: The Open Source CFD Toolbox           |
|  \\    /   O peration     | Version:  2312                                  |
|   \\  /    A nd           | Website:  www.openfoam.com                      |
|    \\/     M anipulation  |                                                 |
\*---------------------------------------------------------------------------*/
FoamFile
{
    version     2.0;
    format      ascii;
    arch        "LSB;label=32;scalar=64";
    class       volScalarField;
    location    "1.95";
    object      p_rgh;
}
// * * * * * * * * * * * * * * * * * * * * * * * * * * * * * * * * * * * * * //

dimensions      [1 -1 -2 0 0 0 0];

internalField   nonuniform List<scalar> 
2268
(
5740.77
5757.27
5797.1
5838.59
5872.46
5885.24
5872.83
5837.05
5785.07
5725.52
5664.83
5604.54
5544.3
5484.35
5425.5
5368.51
5313.75
5257.39
5212.32
5173.91
5142.94
5118.55
5102.23
5734.88
5751.8
5793.73
5838.49
5875.56
5890.21
5877.95
5840.85
5786.63
5724.89
5662.73
5601.75
5541.28
5481.6
5423.45
5367.28
5314.17
5254.91
5210.65
5172.32
5141.46
5116.89
5102.57
5726.45
5741.3
5785.98
5837.26
5880.84
5899.51
5887.8
5847.96
5789.34
5723.2
5658.4
5596.33
5535.57
5476.51
5419.71
5364.84
5312.07
5253.26
5208.18
5169.21
5138
5110.96
5085.98
5710.77
5724.15
5773.69
5835.5
5889.43
5914.08
5902.99
5858.66
5792.94
5719.89
5651.28
5587.73
5526.42
5468.48
5413.87
5361
5308.04
5251.55
5202.77
5164.37
5134.23
5106.06
5080.56
5684.66
5699.01
5756.35
5833.48
5902.6
5935.36
5924.89
5873.83
5797.61
5714.09
5639.64
5574.12
5511.99
5456.24
5405.19
5355.62
5304.01
5249.23
5181.37
5095.63
5010.14
4913.29
4786.48
5055.37
5406.62
5635.86
5819.94
5921.39
5964.44
5954.57
5893.78
5800.74
5682.98
5546.91
5399.81
5209.53
5010.87
4789.63
4527.15
4172.75
3663.01
3183.22
2826.8
2570.36
2309.36
2148
3382.15
2868.18
3162.69
3954.74
4773.68
5163.85
5168.4
4769.31
4087.19
3311.54
2778.32
2384.84
2014.16
1742.29
1519.69
1330.24
1166.12
1130.65
1169.01
1207.59
1244.13
1273.73
1278.19
888.255
985.774
990.883
1061.21
1294.41
1497.33
1476.03
1216.63
951.22
929.824
937.617
951.024
969.841
991.865
1018.21
1049.65
1085.97
1125.63
1165.72
1205.74
1243.4
1276.78
1272.28
3923.79
3750.06
3564.93
3436.13
3316.85
3222.58
3192.38
3219.54
3209.4
3194.56
3160.5
3089.61
3043.23
3013.76
3040.3
3114.37
3185.31
3233.99
3269.26
3907.32
3748.83
3512.27
3357.93
3144.84
3011.61
2979.72
3019.37
2986.28
3000.62
2984.77
2832.67
2783.59
2796.71
2888.08
3043.77
3148.39
3190.68
3206.98
3845.75
3423.23
2966.91
2787.89
2664.99
2480.6
2403.89
2641.8
2709.92
2701.22
2640.18
2579.78
2429.84
2236.6
2177.02
2207.89
2322.83
2402.02
2506.31
3185.38
2887.53
2487.23
2258.59
2112.33
2089.8
2049.2
2101.7
2317.68
2380.79
2290.43
2134.16
2053.98
1752.19
1606.08
1657.97
1632.38
1561.44
1561.85
2409.61
2130.77
2182.66
2171.3
2179.12
2336.51
2283.49
2043.82
1723.41
1666.72
1727.91
1468.4
1392.95
1432.89
1503.08
1516.35
1567
1592.87
1516.59
2121.8
2185.2
2376.39
2322.98
2350.61
2291.96
1929.08
1865.92
1688.54
1529.94
1208.72
1280.46
1328.81
1492.64
1587.9
1542.86
1580.65
1603.3
1554.12
1736.35
1925.79
1957.59
1864.51
1944.67
1596.38
1840.76
1801.13
1733.44
1387.05
1217.17
1258.02
1345.83
1596.34
1606.31
1553.79
1570.28
1598.85
1570.14
1627.26
1440.21
1399.13
1464.01
1383.93
1533.62
1682.11
1682.51
1317.75
1304.47
1363.92
1367.52
1444.07
1601.21
1614.54
1512.98
1511.91
1582.42
1568.35
733.368
906.631
966.299
957.18
943.242
933.503
935.602
921.389
920.347
923.702
929.18
942.13
960.981
984.84
1011.98
1042.61
1077.15
1119.56
1165.2
1209.97
1246.5
1276.5
1308.33
655.367
671.346
799.481
861.451
836.526
820.567
810.553
808.226
809.11
786.567
781.47
810.394
835.639
857.578
881.521
899.585
927.63
986.238
1048.12
1127.61
1192.39
1250.6
1275.53
623.878
622.402
629.309
632.889
623.67
606.956
594.489
589.682
591.212
584.666
561.345
540.354
561.844
581.945
623.86
668.045
707.448
757.173
822.019
890.107
951.222
1049.34
1216.1
649.399
639.74
636.09
626.91
614.925
602.046
594.457
591.086
588.809
585.846
584.297
585.261
588.53
598.083
604.384
615.128
660.102
722.011
794.29
861.581
905.126
927.019
971.625
645.716
633.645
642.788
633.767
596.169
591.849
602.152
594.462
584.136
563.188
541.721
527.19
508.548
479.084
442.872
412.719
405.12
546.07
740.233
850.79
898.481
919.179
894.65
646.092
576.633
648.068
646.26
534.334
486.144
496.789
438.411
314.938
201.712
146.159
122.563
96.1648
70.0414
23.1281
27.936
56.1646
158.056
429.208
753.564
897.385
922.892
925.699
488.945
537.857
619.547
559.185
478.003
345.157
169.355
35.5642
4.22693
4.80121
4.57176
5.13601
13.9854
15.8848
16.0452
22.488
29.9615
72.5746
465.878
855.866
913.003
930.924
940.775
199.393
248.056
255.051
194.557
90.8168
7.05075
1.14204
1.36515
1.63026
1.88557
2.26341
3.80759
5.94349
8.87344
11.9186
45.6425
167.49
632.868
871.784
897.04
923.656
939.44
945.629
0.704542
0.656985
0.673627
0.718715
0.782254
0.919919
0.995809
1.10054
1.35172
1.5732
1.71508
1.66434
0.953183
5.13783
72.9839
97.6791
534.546
862.652
896.5
893.538
921.848
940.718
941.276
0.704033
0.657453
0.666681
0.703834
0.752426
0.843993
0.93962
1.03353
1.24879
1.31312
1.14724
0.664073
-0.408651
-2.09188
13.6342
58.1921
175.288
584.884
760.55
832.775
902.297
964.665
975.521
0.636574
0.646195
0.66879
0.701955
0.743186
0.802123
0.853541
0.891396
1.02662
1.03334
0.731004
0.16828
-0.829642
-2.19747
-2.2609
-1.19399
-0.107297
0.256865
1.33633
153.818
472.329
817.651
1097.68
0.613042
0.618566
0.637603
0.661343
0.689728
0.731328
0.762214
0.763336
0.748019
0.703997
0.442126
-0.0438931
-0.845107
-1.8337
-2.5117
-2.4335
-2.0224
-1.32633
0.632205
8.27866
20.348
30.4019
54.1894
0.585877
0.589814
0.60011
0.615427
0.633133
0.648526
0.654396
0.63601
0.583432
0.474317
0.263235
-0.112615
-0.692929
-1.39441
-1.98342
-2.12184
-1.8602
-1.36602
-0.806466
-0.942703
-0.757578
0.739429
1.00194
0.554275
0.554406
0.558749
0.563944
0.567594
0.56527
0.551278
0.519493
0.458024
0.348771
0.165045
-0.125359
-0.528842
-0.995413
-1.43176
-1.62888
-1.57656
-0.768869
-0.419978
-0.263072
-0.16584
-0.211872
0.326262
0.520226
0.516885
0.514171
0.509852
0.503326
0.489014
0.46395
0.422505
0.357448
0.255543
0.102397
-0.117681
-0.396163
-0.712213
-1.02205
-1.21422
-1.25233
-0.870699
-0.301676
-0.150947
-0.221171
-0.679834
-0.372212
0.485212
0.476835
0.468544
0.45773
0.443038
0.421508
0.390341
0.345827
0.282084
0.191077
0.0646712
-0.101558
-0.298813
-0.520019
-0.743346
-0.907951
-0.980072
-0.993141
-0.896711
-0.692999
-0.689828
-0.702395
-0.627535
0.448174
0.436278
0.423476
0.407745
0.388488
0.363483
0.330518
0.286378
0.227033
0.147873
0.0444471
-0.082795
-0.227806
-0.387222
-0.549559
-0.682898
-0.76868
-0.807372
-0.807383
-0.774565
-0.716692
-0.645046
-0.572115
0.407776
0.394745
0.380204
0.362041
0.340559
0.314378
0.281496
0.239563
0.186007
0.118062
0.0334298
-0.0655129
-0.175107
-0.293211
-0.412718
-0.516859
-0.59271
-0.636622
-0.650404
-0.637414
-0.603045
-0.556844
-0.50536
0.364606
0.351874
0.337337
0.318832
0.297174
0.271409
0.240116
0.201622
0.154212
0.0962514
0.0269193
-0.0512125
-0.136072
-0.225771
-0.315473
-0.395965
-0.458865
-0.500274
-0.51995
-0.519613
-0.502659
-0.47419
-0.439114
0.320782
0.309196
0.295606
0.277906
0.257291
0.233135
0.204442
0.169999
0.128653
0.0794527
0.0225611
-0.0400545
-0.107112
-0.176823
-0.245748
-0.308479
-0.359718
-0.396349
-0.417518
-0.423881
-0.417354
-0.400759
-0.377701
0.278735
0.268498
0.256238
0.23994
0.221017
0.199066
0.173412
0.143168
0.107538
0.065972
0.0191557
-0.0316084
-0.0854413
-0.140694
-0.194842
-0.244477
-0.286209
-0.317752
-0.338138
-0.347507
-0.346935
-0.338227
-0.323345
0.239759
0.230845
0.219994
0.205337
0.188383
0.168862
0.146336
0.120152
0.0897325
0.054792
0.0161484
-0.0253709
-0.06909
-0.113561
-0.156889
-0.196776
-0.230972
-0.257827
-0.276485
-0.286853
-0.289519
-0.285588
-0.276353
0.20421
0.196621
0.187112
0.17413
0.159189
0.142105
0.122606
0.100203
0.074441
0.0452456
0.0132601
-0.0209239
-0.0567142
-0.0929242
-0.128092
-0.160583
-0.188831
-0.211631
-0.228281
-0.238601
-0.242896
-0.24185
-0.236332
0.172098
0.165831
0.157522
0.14612
0.133097
0.118325
0.101658
0.0827041
0.0610777
0.0368019
0.0103274
-0.0179073
-0.047371
-0.0770985
-0.105945
-0.132692
-0.156199
-0.175563
-0.19022
-0.199968
-0.204945
-0.205578
-0.202499
0.143828
0.138358
0.131043
0.12103
0.109739
0.0970751
0.0829886
0.0671443
0.0491759
0.029125
0.00727201
-0.0160509
-0.0403737
-0.0649044
-0.0887291
-0.110908
-0.130573
-0.14703
-0.159825
-0.168757
-0.173866
-0.1754
-0.173949
0.119007
0.114099
0.107534
0.0988599
0.0889639
0.077976
0.0661856
0.05312
0.0383879
0.0220005
0.00407059
-0.0151324
-0.0352023
-0.055483
-0.0752297
-0.0936918
-0.110186
-0.124167
-0.135267
-0.1433
-0.148238
-0.150095
-0.149797
0.100014
0.0930863
0.0870175
0.0793392
0.0706372
0.0607767
0.0509597
0.0403501
0.0284811
0.0153007
0.000742914
-0.0149502
-0.0314418
-0.0481846
-0.0645552
-0.0799352
-0.0937714
-0.105625
-0.115197
-0.122341
-0.127079
-0.129715
-0.129417
0.0855345
0.0754973
0.0695997
0.0621135
0.0541398
0.0454128
0.0371767
0.0286983
0.019407
0.00892496
-0.00265319
-0.0153047
-0.0287392
-0.0424928
-0.0560261
-0.0688128
-0.0803917
-0.0903999
-0.0985877
-0.104822
-0.10908
-0.11144
-0.111749
0.0715913
0.0616156
0.055425
0.0479824
0.0401944
0.0320248
0.0249023
0.0181296
0.0110808
0.00301516
-0.00596554
-0.0159656
-0.0267709
-0.0379779
-0.0491054
-0.0596912
-0.0693395
-0.0777426
-0.0846863
-0.0900487
-0.0937879
-0.0959303
-0.0964939
0.0611575
0.052526
0.0447954
0.0369595
0.0294587
0.0217106
0.0148327
0.00916002
0.00370354
-0.0022215
-0.00895292
-0.0166717
-0.025228
-0.0342685
-0.0433558
-0.0520713
-0.060066
-0.0670752
-0.0729145
-0.0774743
-0.0807098
-0.0826347
-0.0832793
0.0536634
0.0499896
0.0375733
0.029531
0.021738
0.0150614
0.00814133
0.00261907
-0.00185372
-0.00625917
-0.0112435
-0.0171184
-0.0238105
-0.0310404
-0.0384142
-0.0455497
-0.0521373
-0.0579464
-0.0628183
-0.0666579
-0.0694243
-0.0711174
-0.0717643
0.0457043
0.0447193
0.0330082
0.0251188
0.0175371
0.0117717
0.00488099
-0.00103006
-0.00510065
-0.0086358
-0.0124944
-0.0170186
-0.0222554
-0.0280229
-0.033987
-0.0398073
-0.045211
-0.049999
-0.0540366
-0.0572432
-0.0595825
-0.0610451
-0.0616545
0.039778
0.0381328
0.033593
0.0365498
0.0280845
0.0117183
0.00311501
-0.00230099
-0.00575663
-0.00919208
-0.01261
-0.0162149
-0.0203848
-0.025021
-0.029858
-0.0346046
-0.0390271
-0.0429588
-0.0462875
-0.0489472
-0.0509082
-0.0521572
-0.0527143
0.0408309
0.0346788
0.0418143
0.0373721
0.0303774
0.011256
0.00277309
-0.00112184
-0.00380345
-0.00808506
-0.0116719
-0.0147004
-0.0181306
-0.0219255
-0.0258859
-0.029774
-0.0333973
-0.0366211
-0.0393572
-0.0415533
-0.0431872
-0.0442463
-0.0447499
0.100864
0.0771673
0.0561792
0.0365374
0.0230271
0.00907605
0.0036496
0.00108819
-0.0023637
-0.00656926
-0.00991801
-0.012592
-0.0155252
-0.0187127
-0.0220053
-0.0252162
-0.0281953
-0.0308406
-0.033087
-0.034896
-0.0362534
-0.0371507
-0.0376043
0.103794
0.097676
0.0752266
0.0233185
0.0136089
0.00903375
0.00532307
0.00278678
-0.000673554
-0.00504077
-0.0076252
-0.0100699
-0.0126742
-0.0154287
-0.0182144
-0.0208912
-0.0233515
-0.0255248
-0.0273671
-0.0288537
-0.0299784
-0.03074
-0.0311506
0.100132
0.0784357
0.0396404
0.0152342
0.0125882
0.00928296
0.00661261
0.00419054
9.20708e-05
-0.00280897
-0.00507789
-0.00735763
-0.00973246
-0.012166
-0.0145565
-0.0168042
-0.0188398
-0.0206217
-0.0221254
-0.0233388
-0.0242627
-0.0249108
-0.0252841
0.0965167
0.0216427
0.0135699
0.0130082
0.0114934
0.00915735
0.00701636
0.0041766
0.00162826
-0.000511123
-0.00259197
-0.00471368
-0.00688706
-0.00904562
-0.0111002
-0.0129829
-0.0146562
-0.016102
-0.0173128
-0.0182877
-0.0190344
-0.0195721
-0.0199097
0.0712727
0.0335894
0.0109354
0.0143608
0.00990513
0.0140993
0.0074813
0.00481423
0.00309022
0.00132813
-0.00049911
-0.00240112
-0.00432804
-0.006193
-0.00791895
-0.00946119
-0.0108036
-0.0119452
-0.0128906
-0.0136472
-0.0142287
-0.0146577
-0.0149554
0.00830838
0.0995397
0.0980581
0.10534
0.104348
0.037773
0.0055628
0.00478615
0.00369909
0.00239841
0.000931098
-0.000640561
-0.0022233
-0.00372522
-0.00508441
-0.00627242
-0.00728555
-0.0081316
-0.008822
-0.00936844
-0.0097873
-0.0101014
-0.0103442
0.00199059
0.0494805
0.0965804
0.101666
0.089937
0.0244328
0.00354896
0.00369769
0.0032753
0.0025048
0.00150965
0.000405137
-0.000703771
-0.00173842
-0.00265707
-0.00344359
-0.00410047
-0.00463778
-0.00506734
-0.00540077
-0.00565359
-0.00584714
-0.00602044
-0.000937217
-0.00239387
0.00378856
0.00580357
0.00174187
0.000289715
0.000902736
0.00180284
0.00204069
0.00184269
0.00139105
0.000839386
0.000291896
-0.000199393
-0.00061403
-0.000952541
-0.0012216
-0.00142992
-0.00158559
-0.00169669
-0.00177214
-0.00182263
-0.00187359
1518.95
1491.34
1372.59
1206.7
1284.47
1298.78
1225.35
1162.82
1268.05
1134.76
1078.72
1209.47
1002.63
952.985
966.931
1169.54
911.678
935.893
944.174
947.564
938.82
942.374
925.825
913.62
954.694
939.733
926.701
910.236
953.39
940.492
930.269
928.996
935.322
932.048
929.259
927.329
941.361
929.254
927.201
925.802
698.641
619.726
617.611
661.849
94.3156
70.4989
32.8006
21.0393
0.229058
-0.310313
-0.265092
-0.244164
0.518154
0.874876
1.05478
0.763618
-0.226401
-0.348641
-0.216631
0.932781
-0.562039
-0.524046
-0.491984
-0.300851
-0.519856
-0.488237
-0.460563
-0.43537
-0.465056
-0.440063
-0.417602
-0.396468
-0.409101
-0.389768
-0.371981
-0.354926
-0.355914
-0.341458
-0.32783
-0.314479
-0.307858
-0.297274
-0.28701
-0.276714
-0.265546
-0.257927
-0.250285
-0.242412
-0.228853
-0.223411
-0.217762
-0.211777
-0.197349
-0.193468
-0.189302
-0.184756
-0.170421
-0.167645
-0.164559
-0.161097
-0.147387
-0.14539
-0.143094
-0.140444
-0.127662
-0.126188
-0.124454
-0.122407
-0.110556
-0.109485
-0.10818
-0.106596
-0.0956963
-0.0949184
-0.0939323
-0.092703
-0.0827413
-0.0821707
-0.0814237
-0.080467
-0.0713984
-0.0709741
-0.0704032
-0.0696564
-0.0614039
-0.061086
-0.060652
-0.0600727
-0.0525465
-0.0523097
-0.0519833
-0.0515395
-0.0446448
-0.0444729
-0.0442361
-0.0439064
-0.0375508
-0.0374343
-0.0372734
-0.0370414
-0.0311401
-0.0310718
-0.0309779
-0.0308318
-0.0253094
-0.0252837
-0.0252476
-0.0251766
-0.0199656
-0.0199773
-0.0199921
-0.0199872
-0.0150367
-0.0150787
-0.0151339
-0.0151844
-0.010439
-0.010501
-0.0105869
-0.010683
-0.00612472
-0.00619395
-0.0062952
-0.00642483
-0.00193808
-0.00202665
-0.00214557
-0.0023021
1224.85
1346.6
1437.3
1516.4
1368.74
1231.01
1307.62
1364.56
1371.03
1401.6
1427.88
1443.7
1455.28
1481.04
1512.49
1487.98
1531.94
1692.08
1568.39
1233.53
1415.09
1420.96
1401.15
1368.15
1361.43
1380.54
1391.7
1404.72
1419.57
1428.57
1430.76
1431.93
1393.05
1377.71
1469.11
1752.05
1757.32
1509.93
1382.62
1412.85
1419.81
1420.93
1416.51
1411.15
1404.52
1404.57
1411.63
1418.71
1417.97
1397.74
1362.93
1282.34
1218.12
1480.06
1582.81
1748.91
1357.1
1363.56
1403.93
1439.45
1453
1430.2
1413.72
1408.98
1424.13
1448.61
1452
1382.76
1202.34
1121.42
1111.25
1160.7
1400.22
1433.97
1715.52
1300.92
1053.87
1208.67
1260.32
1297.45
1351.76
1357.13
1352.05
1367.32
1390.75
1426.98
1376.48
1212.28
1065.6
1084.99
1187.26
1286.39
1313.79
1380.28
1297.75
900.307
896.49
933.207
932.281
922.858
946.438
982.698
990.086
1015.77
1025.36
1086.79
1217.64
1292.32
1383.24
1288
1142.67
1186.13
1260.09
1361.05
907.675
907.776
909.55
902.133
893.708
891.57
892.37
870.906
847.858
832.542
848.063
931.962
1008.03
977.538
904.896
922.223
1092.39
1386.32
1532.6
923.581
912.262
904.669
899.55
904.427
941.834
982.293
973.926
911.543
862.368
860.633
865.705
867.852
822.067
840.914
881.893
918.31
1203.21
1627.01
922.569
912.01
906.033
980.942
1099.48
1046.32
956.498
931.852
840.219
760.744
762.921
777.727
752.327
738.084
735.662
788.36
843.542
902.968
1200.38
922.066
963.999
1065.35
800.991
581.571
446.39
346.159
301.821
265.8
230.119
228.634
250.732
244.938
236.311
243.963
258.949
315.355
395.985
329.327
624.09
551.712
196.367
90.2049
32.1531
0.10844
0.0297064
0.16904
0.651497
0.857082
0.603586
0.422248
0.389095
0.377981
0.345412
0.334243
0.328008
0.38934
18.1181
10.0905
1.0876
-0.0156502
-0.175716
-0.195171
-0.0874728
-0.0674046
0.288967
0.861575
1.027
1.01368
0.628017
0.663225
0.513029
0.341791
0.286963
0.265522
0.233821
0.174069
-0.272189
-0.0919897
0.0160337
-0.15451
-0.194874
-0.146373
-0.119731
-0.0827554
0.354961
1.29013
1.33606
1.79511
1.7481
1.0105
0.436626
0.325959
0.289199
0.22049
0.180433
0.66096
1.03597
0.960164
0.296147
-0.170582
-0.141775
-0.138282
-0.114146
-0.0833149
0.0603033
0.715654
1.22986
1.54297
0.901675
0.405376
0.319339
0.27191
0.211352
0.182536
1.0138
0.797532
0.260067
0.555185
0.379761
-0.0606451
-0.131615
-0.105507
-0.0752739
-0.0429184
-0.00807921
0.254167
0.107681
0.239859
0.216666
0.256976
0.241207
0.181303
0.176412
0.230343
-0.123347
0.161316
0.47336
0.655793
0.572735
0.115063
-0.0637849
-0.0552564
-0.0251206
0.00693089
0.0410274
0.204496
0.185995
0.141199
0.177768
0.154184
0.162448
0.170054
-0.394496
-0.337607
-0.286087
0.0216967
0.54875
0.646448
0.870361
0.789342
0.43661
0.0332683
0.0181294
0.10046
0.629091
0.430125
0.130438
0.131079
0.142027
0.150115
0.163812
-0.362589
-0.317408
-0.277214
-0.244819
-0.153736
0.29805
0.995419
1.29807
1.22713
0.906673
0.322446
0.850975
0.928692
0.548896
0.124386
0.117293
0.128816
0.136931
0.151146
-0.32771
-0.291603
-0.25649
-0.226644
-0.20191
-0.170397
-0.00170527
0.80681
1.25111
1.28873
1.32665
1.36057
0.915819
0.224371
0.0900854
0.101753
0.114045
0.122367
0.13679
-0.292976
-0.263963
-0.234527
-0.208692
-0.185906
-0.165034
-0.146335
-0.129215
0.152513
0.807758
1.0249
0.597814
0.0420489
0.0437869
0.0681896
0.0858077
0.0985928
0.107058
0.12182
-0.259883
-0.23652
-0.212592
-0.189959
-0.16916
-0.150013
-0.132375
-0.115672
-0.0983945
-0.0776569
-0.0413439
-0.0249798
0.00570569
0.0323842
0.0543671
0.0712055
0.0836653
0.0919373
0.10675
-0.229288
-0.210464
-0.190609
-0.171159
-0.152714
-0.135317
-0.118628
-0.102154
-0.0856881
-0.0662938
-0.0453403
-0.0227629
0.00154321
0.0239704
0.0430709
0.0583478
0.0699483
0.0777821
0.086347
-0.201566
-0.186367
-0.169931
-0.153387
-0.137259
-0.121671
-0.106152
-0.0905595
-0.0751396
-0.0587763
-0.0414183
-0.0215702
-0.00147299
0.0172705
0.0336641
0.0471897
0.0577146
0.0661838
0.0700966
-0.176814
-0.164529
-0.15094
-0.136937
-0.122953
-0.109163
-0.0956179
-0.0817156
-0.0673318
-0.0531474
-0.0373967
-0.0206947
-0.00399113
0.0117368
0.0257537
0.0375637
0.0469658
0.0680641
0.0607789
-0.154914
-0.144977
-0.133737
-0.121914
-0.109859
-0.0977599
-0.0857024
-0.0735679
-0.0610859
-0.048
-0.034266
-0.0201377
-0.00613707
0.00710488
0.0190477
0.0292593
0.0388846
0.0605015
0.0558051
-0.135614
-0.127568
-0.118264
-0.108294
-0.0979494
-0.087407
-0.0767655
-0.0659894
-0.0549411
-0.0435047
-0.0317019
-0.0197366
-0.00796643
0.00318158
0.0133157
0.0220752
0.0320942
0.052064
0.0461216
-0.118611
-0.112084
-0.104378
-0.0959818
-0.0871362
-0.0780067
-0.0687001
-0.0592309
-0.049553
-0.0396359
-0.0295344
-0.019414
-0.00952705
-0.000165936
0.00839138
0.0158552
0.0236769
0.0431724
0.0305193
-0.103608
-0.0983056
-0.0919247
-0.0848665
-0.0773329
-0.0694755
-0.0614044
-0.0531658
-0.0447694
-0.0362362
-0.027638
-0.0191115
-0.0108382
-0.00301688
0.00416359
0.0104865
0.0159142
0.0198608
0.0218975
-0.0903446
-0.0860371
-0.0807582
-0.0748416
-0.0684569
-0.0617406
-0.0548007
-0.0477019
-0.0404862
-0.0332036
-0.0259336
-0.0187922
-0.0119116
-0.00542365
0.000552086
0.00587123
0.010421
0.0137368
0.0156636
-0.0786024
-0.0751057
-0.0707498
-0.0658121
-0.0604358
-0.054742
-0.0488317
-0.0427775
-0.0366383
-0.0304778
-0.0243776
-0.0184388
-0.0127597
-0.00742618
-0.00248606
0.00193531
0.00582816
0.00868492
0.0103746
-0.0681837
-0.0653571
-0.0617819
-0.0576906
-0.0532039
-0.0484272
-0.0434514
-0.0383488
-0.0331837
-0.0280236
-0.0229484
-0.0180478
-0.0133979
-0.00906267
-0.00477895
-0.00106501
0.00193485
0.00435956
0.00615528
-0.0589171
-0.056651
-0.0537442
-0.0503925
-0.0466962
-0.0427447
-0.0386163
-0.0343765
-0.0300879
-0.0258153
-0.0216334
-0.0176224
-0.0138439
-0.0103495
-0.00670594
-0.00348118
-0.000996466
0.000794429
0.00242515
-0.0506462
-0.0488582
-0.046532
-0.0438339
-0.0408455
-0.0376387
-0.0342777
-0.0308178
-0.0273143
-0.0238263
-0.0204204
-0.0171689
-0.0141241
-0.0113327
-0.00864381
-0.00569411
-0.00344954
-0.00179561
-0.000817919
-0.0432352
-0.0418613
-0.040047
-0.0379322
-0.035581
-0.0330478
-0.0303806
-0.0276236
-0.0248221
-0.0220272
-0.0192967
-0.0166957
-0.0142691
-0.0120606
-0.0100131
-0.00778754
-0.00564313
-0.00431421
-0.00389311
-0.036562
-0.0355523
-0.0341956
-0.0326061
-0.0308309
-0.0289072
-0.026867
-0.0247425
-0.0225692
-0.0203891
-0.0182512
-0.0162129
-0.0143122
-0.0125956
-0.0109954
-0.00957368
-0.00747649
-0.00635297
-0.00626577
-0.0305208
-0.0298341
-0.0288897
-0.0277769
-0.0265241
-0.0251524
-0.0236792
-0.0221258
-0.0205179
-0.0188887
-0.0172783
-0.0157338
-0.0142863
-0.012988
-0.0117515
-0.01069
-0.00943219
-0.00823733
-0.00803545
-0.0250149
-0.0246184
-0.0240479
-0.0233685
-0.0225912
-0.0217209
-0.0207637
-0.019731
-0.0186395
-0.0175128
-0.0163803
-0.0152759
-0.0142247
-0.0132853
-0.0123551
-0.0115513
-0.0106393
-0.0100357
-0.00946178
-0.0199577
-0.0198219
-0.0195927
-0.019309
-0.0189659
-0.0185561
-0.0180763
-0.017529
-0.0169212
-0.016265
-0.0155759
-0.0148721
-0.0141792
-0.0135314
-0.0128491
-0.0122486
-0.0115038
-0.0110134
-0.0105475
-0.0152693
-0.0153665
-0.01545
-0.0155315
-0.0155928
-0.0156176
-0.0155937
-0.0155134
-0.0153722
-0.015168
-0.0148996
-0.014571
-0.0142007
-0.0137948
-0.0133055
-0.0128265
-0.0121911
-0.0117596
-0.0113365
-0.0108688
-0.0111792
-0.0115565
-0.0119858
-0.0124377
-0.0128855
-0.0133072
-0.0136832
-0.0139956
-0.0142282
-0.0143638
-0.0143937
-0.0143172
-0.0141205
-0.0137852
-0.0133704
-0.0127907
-0.0123714
-0.0118916
-0.00669399
-0.00720421
-0.0078635
-0.00862781
-0.00945786
-0.0103166
-0.0111711
-0.0119897
-0.0127415
-0.0133968
-0.0139254
-0.0143036
-0.0145092
-0.014517
-0.0143144
-0.013936
-0.0133619
-0.0128736
-0.0123157
-0.00264183
-0.00334183
-0.00427313
-0.00536711
-0.00657661
-0.00785099
-0.00914502
-0.0104138
-0.0116136
-0.0127024
-0.0136374
-0.0143803
-0.0148861
-0.0151202
-0.0150481
-0.0146859
-0.0140137
-0.0133242
-0.0124863
)
;

boundaryField
{
    leftWall
    {
        type            fixedFluxPressure;
        gradient        uniform 0;
        value           nonuniform List<scalar> 
50
(
5740.77
5734.88
5726.45
5710.77
5684.66
5055.37
3382.15
888.255
733.368
655.367
623.878
649.399
645.716
646.092
488.945
199.393
0.704542
0.704033
0.636574
0.613042
0.585877
0.554275
0.520226
0.485212
0.448174
0.407776
0.364606
0.320782
0.278735
0.239759
0.20421
0.172098
0.143828
0.119007
0.100014
0.0855345
0.0715913
0.0611575
0.0536634
0.0457043
0.039778
0.0408309
0.100864
0.103794
0.100132
0.0965167
0.0712727
0.00830838
0.00199059
-0.000937217
)
;
    }
    rightWall
    {
        type            fixedFluxPressure;
        gradient        uniform 0;
        value           nonuniform List<scalar> 
50
(
3269.26
3206.98
2506.31
1561.85
1516.59
1554.12
1570.14
1568.35
1568.39
1509.93
1357.1
1300.92
1297.75
1361.05
1532.6
1627.01
1200.38
329.327
18.1181
0.174069
0.180433
0.182536
0.176412
0.170054
0.163812
0.151146
0.13679
0.12182
0.10675
0.086347
0.0700966
0.0607789
0.0558051
0.0461216
0.0305193
0.0218975
0.0156636
0.0103746
0.00615528
0.00242515
-0.000817919
-0.00389311
-0.00626577
-0.00803545
-0.00946178
-0.0105475
-0.0113365
-0.0118916
-0.0123157
-0.0124863
)
;
    }
    lowerWall
    {
        type            fixedFluxPressure;
        gradient        uniform 0;
        value           nonuniform List<scalar> 
62
(
5740.77
5757.27
5797.1
5838.59
5872.46
5885.24
5872.83
5837.05
5785.07
5725.52
5664.83
5604.54
5544.3
5484.35
5425.5
5368.51
5313.75
5257.39
5212.32
5173.91
5142.94
5118.55
5102.23
5102.23
5102.57
5085.98
5080.56
4786.48
2148
1278.19
1272.28
1518.95
1491.34
1372.59
1206.7
3923.79
3907.32
3845.75
3185.38
2409.61
2121.8
1736.35
1627.26
3923.79
3750.06
3564.93
3436.13
3316.85
3222.58
3192.38
3219.54
3209.4
3194.56
3160.5
3089.61
3043.23
3013.76
3040.3
3114.37
3185.31
3233.99
3269.26
)
;
    }
    atmosphere
    {
        type            totalPressure;
        rho             rho;
        psi             none;
        gamma           1;
        p0              uniform 0;
        value           nonuniform List<scalar> 
46
(
0
0
0
0
0
0
0
0
0
0
0
0
0
0
0
0
0
0
0
0
0
0
0
0
-3.60559e-06
-5.03072e-05
-0.000163864
-0.000517087
-0.00130658
-0.00240845
-0.00370955
-0.00514554
-0.0066597
-0.00820213
-0.00972305
-0.0111732
-0.0125063
-0.0136735
-0.0146341
-0.015331
-0.0157156
-0.0157298
-0.0153524
-0.0144899
-0.0134891
-0.0119382
)
;
    }
    defaultFaces
    {
        type            empty;
    }
}


// ************************************************************************* //
