/*--------------------------------*- C++ -*----------------------------------*\
| =========                 |                                                 |
| \\      /  F ield         | OpenFOAM: The Open Source CFD Toolbox           |
|  \\    /   O peration     | Version:  2312                                  |
|   \\  /    A nd           | Website:  www.openfoam.com                      |
|    \\/     M anipulation  |                                                 |
\*---------------------------------------------------------------------------*/
FoamFile
{
    version     2.0;
    format      ascii;
    arch        "LSB;label=32;scalar=64";
    class       surfaceScalarField;
    location    "1.95";
    object      phi;
}
// * * * * * * * * * * * * * * * * * * * * * * * * * * * * * * * * * * * * * //

dimensions      [0 3 -1 0 0 0 0];

oriented        oriented;

internalField   nonuniform List<scalar> 
4432
(
1.46085e-07
-1.46085e-07
-1.646e-06
1.79208e-06
-3.77838e-06
2.13239e-06
-5.73322e-06
1.95484e-06
-7.33228e-06
1.59906e-06
-8.58708e-06
1.25479e-06
-9.42348e-06
8.36406e-07
-9.75176e-06
3.2828e-07
-9.5218e-06
-2.29962e-07
-8.743e-06
-7.78797e-07
-7.50712e-06
-1.23589e-06
-5.94915e-06
-1.55796e-06
-4.27048e-06
-1.67867e-06
-2.70774e-06
-1.56274e-06
-1.41183e-06
-1.29592e-06
-4.54702e-07
-9.57123e-07
1.62996e-07
-6.17698e-07
4.70075e-07
-3.07079e-07
5.40024e-07
-6.99487e-08
4.65185e-07
7.48398e-08
3.23895e-07
1.4129e-07
7.66483e-08
2.47247e-07
7.66485e-08
-1.17609e-06
1.03001e-06
-2.88845e-06
3.50443e-06
-4.81769e-06
4.06163e-06
-6.4808e-06
3.61795e-06
-7.91862e-06
3.03689e-06
-9.08603e-06
2.4222e-06
-9.88664e-06
1.63702e-06
-1.02014e-05
6.43051e-07
-9.95133e-06
-4.80039e-07
-9.13677e-06
-1.59336e-06
-7.84366e-06
-2.529e-06
-6.21842e-06
-3.18321e-06
-4.47892e-06
-3.41816e-06
-2.87565e-06
-3.16602e-06
-1.55658e-06
-2.61499e-06
-5.9069e-07
-1.92301e-06
2.00201e-08
-1.22841e-06
3.21368e-07
-6.08427e-07
3.83967e-07
-1.32548e-07
3.0171e-07
1.57096e-07
1.58842e-07
2.84158e-07
-1.0595e-07
5.1204e-07
-2.9302e-08
-2.23941e-06
3.26941e-06
-4.16001e-06
5.42503e-06
-5.99928e-06
5.90091e-06
-7.48342e-06
5.10209e-06
-8.77193e-06
4.3254e-06
-9.83956e-06
3.48982e-06
-1.05916e-05
2.38902e-06
-1.08711e-05
9.22632e-07
-1.05638e-05
-7.87424e-07
-9.65393e-06
-2.50318e-06
-8.23912e-06
-3.94382e-06
-6.48586e-06
-4.93647e-06
-4.62878e-06
-5.27524e-06
-2.95008e-06
-4.84472e-06
-1.58867e-06
-3.97639e-06
-5.96707e-07
-2.91497e-06
4.04769e-08
-1.86559e-06
3.80434e-07
-9.48383e-07
4.7769e-07
-2.29804e-07
4.37027e-07
1.9776e-07
3.38355e-07
3.8283e-07
1.60543e-07
6.89853e-07
1.31241e-07
-3.10377e-06
6.37319e-06
-5.37742e-06
7.69868e-06
-7.18954e-06
7.71302e-06
-8.49147e-06
6.40402e-06
-9.60888e-06
5.44281e-06
-1.05707e-05
4.45163e-06
-1.12683e-05
3.08659e-06
-1.14991e-05
1.1535e-06
-1.1112e-05
-1.17451e-06
-1.00766e-05
-3.53862e-06
-8.50237e-06
-5.51806e-06
-6.56132e-06
-6.87752e-06
-4.52345e-06
-7.31311e-06
-2.72525e-06
-6.64293e-06
-1.2911e-06
-5.41054e-06
-2.40424e-07
-3.96565e-06
4.88667e-07
-2.59468e-06
9.11469e-07
-1.37119e-06
1.02063e-06
-3.38966e-07
9.27371e-07
2.91019e-07
8.02713e-07
5.07487e-07
6.56639e-07
8.35926e-07
7.8788e-07
-3.14432e-06
9.51751e-06
-5.57891e-06
1.01333e-05
-7.63121e-06
9.76532e-06
-9.05745e-06
7.83027e-06
-1.01875e-05
6.57282e-06
-1.11139e-05
5.37811e-06
-1.17917e-05
3.76436e-06
-1.2017e-05
1.3788e-06
-1.15973e-05
-1.59417e-06
-1.0481e-05
-4.65499e-06
-8.73264e-06
-7.2664e-06
-6.54132e-06
-9.06884e-06
-4.26294e-06
-9.5915e-06
-2.28365e-06
-8.62221e-06
-7.20504e-07
-6.97369e-06
4.30268e-07
-5.11642e-06
1.26877e-06
-3.43318e-06
1.68595e-06
-1.78837e-06
1.71534e-06
-3.6836e-07
1.43056e-06
5.75802e-07
1.14536e-06
7.92687e-07
1.05234e-06
9.28947e-07
1.84022e-06
-2.45718e-06
1.19747e-05
-5.37253e-06
1.30486e-05
-8.05669e-06
1.24495e-05
-9.91943e-06
9.69301e-06
-1.11165e-05
7.76984e-06
-1.18855e-05
6.14719e-06
-1.23892e-05
4.26805e-06
-1.25775e-05
1.56713e-06
-1.22575e-05
-1.91424e-06
-1.11686e-05
-5.74387e-06
-9.25395e-06
-9.18105e-06
-6.82337e-06
-1.14994e-05
-4.35835e-06
-1.20565e-05
-2.28223e-06
-1.06983e-05
-7.08016e-07
-8.5479e-06
3.9622e-07
-6.22066e-06
1.14714e-06
-4.1841e-06
1.27755e-06
-1.91878e-06
8.07488e-07
1.01705e-07
3.43877e-08
1.3489e-06
-7.24431e-07
1.5515e-06
-3.72841e-07
5.77357e-07
1.46738e-06
-5.15379e-06
1.71285e-05
-8.82465e-06
1.67195e-05
-1.08326e-05
1.44574e-05
-1.2568e-05
1.14284e-05
-1.34356e-05
8.63735e-06
-1.40315e-05
6.74312e-06
-1.44881e-05
4.72463e-06
-1.44998e-05
1.57883e-06
-1.37039e-05
-2.71009e-06
-1.19704e-05
-7.47736e-06
-9.75394e-06
-1.13975e-05
-7.19578e-06
-1.40576e-05
-4.71389e-06
-1.45384e-05
-2.68922e-06
-1.2723e-05
-1.30453e-06
-9.93259e-06
-9.26247e-07
-6.59895e-06
-3.04774e-06
-2.0626e-06
-7.77273e-06
2.80619e-06
-1.23287e-05
4.65765e-06
-1.52087e-05
4.22893e-06
-1.46563e-05
9.99095e-07
-9.01623e-06
-5.06272e-06
-7.54885e-06
-1.4141e-05
3.12695e-05
-1.73891e-05
1.99675e-05
-1.62457e-05
1.33141e-05
-1.51872e-05
1.037e-05
-1.51391e-05
8.58924e-06
-1.50552e-05
6.65921e-06
-1.45157e-05
4.1851e-06
-1.29642e-05
2.7372e-08
-1.15541e-05
-4.12022e-06
-9.97293e-06
-9.05853e-06
-7.88046e-06
-1.349e-05
-5.90174e-06
-1.60363e-05
-4.19079e-06
-1.62494e-05
-3.43385e-06
-1.34799e-05
-3.89172e-06
-9.47473e-06
-5.11751e-06
-5.37315e-06
-6.18231e-06
-9.97804e-07
-7.68208e-06
4.30597e-06
-1.02033e-05
7.17886e-06
-1.26036e-05
6.62921e-06
-1.35106e-05
1.90609e-06
-1.16428e-05
-6.9305e-06
-1.91916e-05
-9.78545e-06
9.78545e-06
-1.43421e-05
4.55668e-06
-1.53887e-05
1.04656e-06
-1.319e-05
-2.19868e-06
-1.08639e-05
-2.32609e-06
-8.43991e-06
-2.42401e-06
-5.29067e-06
-3.14924e-06
-3.17816e-06
-2.11251e-06
-3.06367e-06
-1.14491e-07
-3.50865e-06
4.44983e-07
-3.94429e-06
4.35636e-07
-5.73196e-06
1.78768e-06
-8.00881e-06
2.27685e-06
-1.04026e-05
2.39378e-06
-1.19216e-05
1.51901e-06
-1.14683e-05
-4.53281e-07
-9.92566e-06
-1.54266e-06
-6.49266e-06
-3.433e-06
-6.49266e-06
-1.30537e-06
1.10908e-05
-2.96087e-06
6.21218e-06
-4.53782e-06
2.62351e-06
-4.16011e-06
-2.57639e-06
-2.21765e-06
-4.26855e-06
1.51874e-06
-6.1604e-06
4.71592e-06
-6.34642e-06
7.65212e-06
-5.04871e-06
8.22792e-06
-6.90288e-07
5.27792e-06
3.39499e-06
4.46112e-07
5.26744e-06
-3.00834e-06
5.24213e-06
-4.67799e-06
3.9465e-06
-7.23609e-06
4.95188e-06
-9.62898e-06
3.91191e-06
-1.07357e-05
6.53457e-07
-9.84218e-06
-2.4362e-06
-6.51658e-06
-6.7586e-06
-1.30092e-05
3.62311e-06
7.46771e-06
3.98855e-06
5.84675e-06
5.36312e-06
1.24893e-06
6.61282e-06
-3.82609e-06
9.36942e-06
-7.02515e-06
1.25269e-05
-9.31788e-06
1.35645e-05
-7.38406e-06
1.61385e-05
-7.62263e-06
1.91682e-05
-3.72007e-06
1.8427e-05
4.13626e-06
1.3101e-05
1.05934e-05
5.88985e-06
1.24533e-05
5.19317e-07
9.31703e-06
-3.12615e-06
8.59735e-06
-6.42941e-06
7.21517e-06
-8.68038e-06
2.90443e-06
-6.887e-06
-4.22957e-06
-3.33802e-06
-1.03076e-05
-1.63473e-05
2.73852e-06
4.72919e-06
3.53753e-06
5.04773e-06
6.53948e-06
-1.75302e-06
9.50378e-06
-6.79039e-06
1.53496e-05
-1.28709e-05
2.10816e-05
-1.50499e-05
2.28773e-05
-9.17971e-06
2.1842e-05
-6.58739e-06
2.19869e-05
-3.86491e-06
2.17216e-05
4.4015e-06
1.86128e-05
1.37023e-05
9.06374e-06
2.20023e-05
-4.47649e-06
2.28573e-05
-1.1741e-05
1.58618e-05
-9.35075e-06
4.82495e-06
-7.41949e-06
9.73166e-07
-2.84689e-06
-8.80217e-06
2.75346e-06
-1.59079e-05
-1.35938e-05
-3.51416e-06
8.24334e-06
-1.14744e-06
2.68102e-06
3.52104e-06
-6.4215e-06
7.91323e-06
-1.11826e-05
1.44905e-05
-1.94482e-05
1.90299e-05
-1.95893e-05
2.19365e-05
-1.20863e-05
2.3056e-05
-7.70689e-06
2.06949e-05
-1.50375e-06
1.76871e-05
7.40924e-06
8.92866e-06
2.24607e-05
-5.76201e-06
3.6693e-05
-2.16479e-05
3.87431e-05
-2.1754e-05
1.5968e-05
-1.36836e-05
-3.24545e-06
-1.23392e-05
-3.71307e-07
-6.78457e-06
-1.43568e-05
4.61033e-06
-2.73028e-05
-8.98348e-06
5.53411e-07
7.68993e-06
4.35905e-06
-1.12463e-06
5.17655e-06
-7.23901e-06
5.39025e-06
-1.13963e-05
8.51522e-06
-2.25732e-05
1.01549e-05
-2.1229e-05
1.18167e-05
-1.37481e-05
1.14707e-05
-7.36085e-06
8.12354e-06
1.84338e-06
-6.29264e-07
1.6162e-05
-1.21717e-05
3.40032e-05
-1.97501e-05
4.42714e-05
-2.39239e-05
4.29168e-05
-1.90419e-05
1.10861e-05
-1.52194e-05
-7.06799e-06
-1.46389e-05
-9.51787e-07
-9.84879e-06
-1.91469e-05
1.13044e-06
-3.82821e-05
-7.85304e-06
7.28003e-06
4.09898e-07
6.05959e-06
9.58027e-08
8.43895e-07
-2.02332e-06
-3.01159e-06
-7.5408e-06
-4.52603e-06
-2.10588e-05
-5.69832e-06
-2.00567e-05
-4.77434e-06
-1.46721e-05
-6.59456e-06
-5.54063e-06
-1.02673e-05
5.51609e-06
-1.79447e-05
2.38394e-05
-2.23194e-05
3.83779e-05
-2.25802e-05
4.45322e-05
-1.97321e-05
4.00688e-05
-1.8209e-05
9.56298e-06
-1.95404e-05
-5.73657e-06
-1.75959e-05
-2.89633e-06
-1.12453e-05
-2.54974e-05
-5.00611e-07
-4.90268e-05
-8.35365e-06
-1.20186e-05
1.24285e-05
-2.28013e-05
1.08785e-05
-2.51422e-05
3.17511e-07
-2.03855e-05
-1.22975e-05
-2.09102e-05
-2.0534e-05
-2.16192e-05
-1.93477e-05
-2.24358e-05
-1.38556e-05
-2.41402e-05
-3.83615e-06
-2.75944e-05
8.97029e-06
-2.77127e-05
2.39576e-05
-2.39688e-05
3.4634e-05
-1.93731e-05
3.99365e-05
-1.58301e-05
3.65258e-05
-1.90708e-05
1.28037e-05
-2.34172e-05
-1.39023e-06
-2.09149e-05
-5.39864e-06
-1.11703e-05
-3.5242e-05
5.49851e-07
-6.07469e-05
-7.8038e-06
-1.39667e-05
4.52361e-05
-2.77624e-05
3.37632e-05
-3.25758e-05
1.81275e-05
-3.1888e-05
9.68214e-06
-3.11774e-05
7.87868e-06
-2.95947e-05
5.07647e-06
-2.62345e-05
8.24882e-07
-1.8787e-05
-7.42008e-06
-1.17069e-05
-1.12003e-05
-6.71721e-06
-1.40483e-05
-3.21971e-06
-1.69875e-05
-7.49698e-08
-1.9181e-05
2.35721e-06
-1.86815e-05
4.32581e-06
-1.54485e-05
5.69998e-06
-1.08489e-05
5.4093e-06
-5.08246e-06
3.03534e-06
1.37615e-06
-1.34252e-06
8.68383e-06
-9.46509e-06
1.53014e-05
-2.12105e-05
1.83746e-05
-3.52898e-05
1.59854e-05
-4.7958e-05
5.73769e-06
-6.75328e-06
-6.03964e-05
1.16945e-05
3.35417e-05
4.93365e-06
4.0524e-05
-4.13096e-06
2.71921e-05
-8.42359e-06
1.39748e-05
-8.56517e-06
8.02025e-06
-5.92603e-06
2.43732e-06
1.04668e-06
-6.14782e-06
9.16974e-06
-1.55431e-05
1.55017e-05
-1.75323e-05
2.05244e-05
-1.9071e-05
2.42838e-05
-2.07469e-05
2.71793e-05
-2.20766e-05
2.9131e-05
-2.06332e-05
3.01387e-05
-1.64562e-05
3.01586e-05
-1.08688e-05
2.77558e-05
-2.67962e-06
2.09202e-05
8.21169e-06
1.08141e-05
1.87899e-05
-1.47061e-06
2.75862e-05
-1.4166e-05
3.107e-05
-2.59396e-05
2.7759e-05
-3.93126e-05
1.91107e-05
1.33319e-05
-5.93978e-05
2.60827e-05
7.459e-06
2.62319e-05
4.03748e-05
2.16971e-05
3.17269e-05
1.73943e-05
1.82776e-05
1.81014e-05
7.3132e-06
2.5661e-05
-5.12233e-06
3.66254e-05
-1.71122e-05
4.51932e-05
-2.4111e-05
5.37904e-05
-2.61295e-05
6.02802e-05
-2.55608e-05
6.41453e-05
-2.4612e-05
6.55279e-05
-2.34592e-05
6.53178e-05
-2.0423e-05
6.31709e-05
-1.43093e-05
5.81542e-05
-5.85217e-06
4.84641e-05
7.01047e-06
3.41662e-05
2.25097e-05
1.56133e-05
3.73428e-05
-3.62389e-06
4.68234e-05
-2.14948e-05
4.8941e-05
-3.80181e-05
4.42823e-05
-5.59303e-05
3.7023e-05
3.36141e-05
-7.62125e-05
2.1208e-05
-1.3749e-05
2.11053e-05
4.04776e-05
2.08491e-05
3.19831e-05
1.91433e-05
1.99834e-05
2.05439e-05
5.91268e-06
2.90799e-05
-1.36583e-05
3.84654e-05
-2.64977e-05
4.64246e-05
-3.20702e-05
5.39123e-05
-3.36171e-05
6.18496e-05
-3.34982e-05
7.00512e-05
-3.28136e-05
7.76346e-05
-3.10426e-05
8.37745e-05
-2.65629e-05
8.71002e-05
-1.7635e-05
8.63058e-05
-5.0577e-06
8.01423e-05
1.31739e-05
6.16337e-05
4.10182e-05
3.42496e-05
6.47269e-05
4.96449e-06
7.61086e-05
-1.97282e-05
7.36337e-05
-4.12062e-05
6.57603e-05
-6.15431e-05
5.73598e-05
5.3605e-05
-8.15341e-05
1.03003e-05
-2.40493e-05
1.38138e-05
3.6964e-05
1.87869e-05
2.701e-05
2.47056e-05
1.40647e-05
3.02652e-05
3.53015e-07
3.64529e-05
-1.9846e-05
4.21624e-05
-3.22072e-05
4.6232e-05
-3.61399e-05
4.97774e-05
-3.71624e-05
5.48039e-05
-3.85247e-05
6.20631e-05
-4.00728e-05
7.10623e-05
-4.00419e-05
8.05467e-05
-3.60473e-05
8.90445e-05
-2.61328e-05
9.33062e-05
-9.31937e-06
9.03751e-05
1.6105e-05
6.49981e-05
6.63953e-05
2.28157e-05
0.000106909
-1.32574e-05
0.000112182
-3.85512e-05
9.89275e-05
-5.6348e-05
8.35571e-05
-7.15161e-05
7.2528e-05
6.62054e-05
-8.41165e-05
1.02128e-06
-2.50706e-05
1.42797e-05
2.37056e-05
2.49296e-05
1.63601e-05
3.69506e-05
2.04368e-06
4.87981e-05
-1.14945e-05
5.35924e-05
-2.46402e-05
5.38203e-05
-3.24351e-05
5.13897e-05
-3.37092e-05
4.89449e-05
-3.47177e-05
5.07575e-05
-4.03373e-05
5.67356e-05
-4.60508e-05
6.61607e-05
-4.9467e-05
7.41935e-05
-4.40801e-05
3.47128e-05
1.33479e-05
-3.36891e-05
5.90827e-05
-7.72158e-05
5.96319e-05
-8.70351e-05
7.6215e-05
-9.71289e-05
0.000117003
-9.58952e-05
0.000110948
-9.09619e-05
9.39942e-05
-9.03695e-05
8.29647e-05
-9.22635e-05
7.4422e-05
6.72139e-05
-9.3272e-05
-7.53514e-06
-1.75354e-05
1.27181e-05
3.45232e-06
2.73224e-05
1.75582e-06
4.28713e-05
-1.35053e-05
5.70733e-05
-2.56964e-05
6.71887e-05
-3.47557e-05
7.77173e-05
-4.29638e-05
8.36237e-05
-3.96156e-05
6.02721e-05
-1.13662e-05
4.56343e-05
-2.56995e-05
9.70513e-06
-1.01217e-05
-9.51328e-05
5.5371e-05
-0.000238904
9.96908e-05
-0.000401662
0.000176107
-0.000505036
0.000162457
-0.000513779
6.83752e-05
-0.000437747
1.83359e-07
-0.000298167
-2.25776e-05
-0.000208364
2.11458e-05
-0.000158957
4.45869e-05
-0.000133404
5.74116e-05
-0.000118955
5.99729e-05
5.682e-05
-0.000108561
-2.36165e-05
6.08111e-06
-6.54306e-07
-1.95099e-05
2.59648e-05
-2.48633e-05
4.82093e-05
-3.57498e-05
7.63072e-05
-5.37944e-05
7.97547e-05
-3.82032e-05
5.08856e-05
-1.40949e-05
1.82267e-05
-6.95681e-06
-7.0894e-06
1.39499e-05
-6.39499e-05
3.1161e-05
-0.000174844
0.000100772
-0.00030539
0.000185917
-0.000445401
0.000239702
-0.000487372
0.000218078
-0.000405798
8.08834e-05
-0.000328081
-9.34201e-06
-0.000290348
-3.75497e-05
-0.000274918
-3.8008e-05
-0.000238001
-1.5771e-05
-0.000200577
7.16297e-06
-0.000169709
2.65434e-05
-0.00014589
3.6154e-05
3.829e-05
-0.00012736
-4.03901e-06
1.01201e-05
-5.87386e-06
-1.76751e-05
-7.43001e-06
-2.33072e-05
-1.83042e-05
-2.48757e-05
-4.25982e-05
-2.95005e-05
-5.69735e-05
-2.38279e-05
-6.49236e-05
-6.14483e-06
-8.05524e-05
8.67199e-06
-0.000101252
3.46492e-05
-0.000157664
8.75737e-05
-0.000227574
0.000170682
-0.000294029
0.000252373
-0.000350675
0.000296348
-0.000351254
0.000218656
-0.000303461
3.30904e-05
-0.000285162
-2.76411e-05
-0.000272756
-4.9956e-05
-0.000263588
-4.71754e-05
-0.000247793
-3.15664e-05
-0.000226432
-1.41979e-05
-0.000199715
-1.7373e-07
-0.00017307
9.50942e-06
1.50174e-05
-0.000149798
1.24237e-05
-2.30371e-06
6.67607e-06
-1.19275e-05
-1.87191e-06
-1.47593e-05
-1.33307e-05
-1.34169e-05
-3.43339e-05
-8.49732e-06
-5.68034e-05
-1.3585e-06
-7.55926e-05
1.26444e-05
-0.000100872
3.39511e-05
-0.000132528
6.63059e-05
-0.000162811
0.000117857
-0.000187069
0.000194939
-0.000210678
0.000275982
-0.000233106
0.000318777
-0.000268434
0.000253984
-0.000283499
4.81551e-05
-0.000274465
-3.66755e-05
-0.00026599
-5.84312e-05
-0.000252106
-6.10594e-05
-0.000242635
-4.1037e-05
-0.000232992
-2.38411e-05
-0.000216646
-1.65199e-05
-0.000196345
-1.07917e-05
-8.58562e-06
-0.000172742
5.34704e-06
-7.6508e-06
1.59599e-06
-8.17652e-06
-6.82086e-06
-6.34249e-06
-1.87219e-05
-1.51595e-06
-3.5294e-05
8.07478e-06
-6.01417e-05
2.34892e-05
-8.72679e-05
3.97707e-05
-0.000108859
5.55427e-05
-0.000124965
8.24118e-05
-0.000135058
0.00012795
-0.000133957
0.000193838
-0.000122665
0.00026469
-0.000110706
0.000306818
-0.000126396
0.000269674
-0.000192901
0.000114659
-0.000234882
5.30575e-06
-0.000248191
-4.51213e-05
-0.000248573
-6.06782e-05
-0.00024931
-4.02996e-05
-0.000231133
-4.20179e-05
-0.000210137
-3.75164e-05
-0.000193924
-2.70041e-05
-2.74494e-05
-0.000175061
1.46063e-06
-9.11145e-06
-2.48733e-06
-4.22859e-06
-1.14446e-05
2.61471e-06
-2.67569e-05
1.37963e-05
-4.69584e-05
2.82762e-05
-6.5708e-05
4.22388e-05
-8.03561e-05
5.44189e-05
-9.23773e-05
6.75639e-05
-0.000100693
9.07274e-05
-0.000101133
0.00012839
-8.76876e-05
0.000180392
-6.02486e-05
0.000237251
-3.02084e-05
0.000276778
-2.54759e-05
0.000264942
-7.3144e-05
0.000162328
-0.000136356
6.85184e-05
-0.000188926
7.4488e-06
-0.000220804
-2.88e-05
-0.000223456
-3.76479e-05
-0.000220716
-4.47577e-05
-0.000213611
-4.46217e-05
-0.000200158
-4.04569e-05
-4.17691e-05
-0.000185838
-2.37414e-06
-6.73733e-06
-8.20824e-06
1.60548e-06
-1.85095e-05
1.29159e-05
-3.18805e-05
2.71674e-05
-4.5377e-05
4.17728e-05
-5.68158e-05
5.36777e-05
-6.55006e-05
6.31037e-05
-7.20745e-05
7.41379e-05
-7.52723e-05
9.39253e-05
-7.09336e-05
0.000124051
-5.35561e-05
0.000163015
-2.20781e-05
0.000205773
1.54141e-05
0.000239286
4.18099e-05
0.000238546
2.92828e-05
0.000174855
-8.98108e-07
9.86994e-05
-3.70831e-05
4.36338e-05
-7.83085e-05
1.24254e-05
-0.000107522
-8.43416e-06
-0.000123559
-2.87209e-05
-0.000129579
-3.86011e-05
-0.00012708
-4.29562e-05
-4.52039e-05
-0.000123645
-5.62673e-06
-1.1106e-06
-1.40567e-05
1.00354e-05
-2.40994e-05
2.29587e-05
-3.35978e-05
3.66658e-05
-4.13649e-05
4.95399e-05
-4.75082e-05
5.9821e-05
-5.2225e-05
6.78206e-05
-5.56101e-05
7.7523e-05
-5.55803e-05
9.38955e-05
-4.85399e-05
0.000117011
-3.07221e-05
0.000145197
-6.3861e-07
0.00017569
3.71075e-05
0.00020154
7.00389e-05
0.000205615
7.64561e-05
0.000168438
6.1191e-05
0.000113965
3.81568e-05
6.66681e-05
1.48917e-05
3.56905e-05
-5.09775e-06
1.15553e-05
-2.31183e-05
-1.07004e-05
-3.23862e-05
-2.93332e-05
-3.69736e-05
-3.83688e-05
-3.89847e-05
-4.31928e-05
-9.32047e-06
8.20985e-06
-1.95016e-05
2.02166e-05
-2.84051e-05
3.18621e-05
-3.50367e-05
4.32975e-05
-3.9435e-05
5.39381e-05
-4.23056e-05
6.26916e-05
-4.4298e-05
6.9813e-05
-4.49851e-05
7.82101e-05
-4.22117e-05
9.11221e-05
-3.34526e-05
0.000108252
-1.64561e-05
0.000128201
9.94654e-06
0.000149287
4.36129e-05
0.000167873
7.61042e-05
0.000173123
9.20065e-05
0.000152535
8.95285e-05
0.000116443
7.56006e-05
8.0596e-05
6.02221e-05
5.10689e-05
4.66541e-05
2.51233e-05
3.32417e-05
2.71207e-06
1.96526e-05
-1.57441e-05
1.0398e-05
-2.91141e-05
-3.57268e-05
7.14011e-06
-1.31538e-05
2.13637e-05
-2.41014e-05
3.11642e-05
-3.18751e-05
3.96358e-05
-3.67382e-05
4.81606e-05
-3.91922e-05
5.63921e-05
-4.00081e-05
6.35075e-05
-3.98002e-05
6.96052e-05
-3.81094e-05
7.65193e-05
-3.32503e-05
8.62631e-05
-2.36133e-05
9.86149e-05
-7.90851e-06
0.000112496
1.45981e-05
0.00012678
4.30727e-05
0.000139399
7.22458e-05
0.00014395
9.19027e-05
0.000132879
9.83495e-05
0.000109996
9.50024e-05
8.39431e-05
8.74259e-05
5.86455e-05
7.83713e-05
3.41779e-05
6.91051e-05
1.19782e-05
5.94323e-05
-6.07122e-06
4.96708e-05
-1.93527e-05
-2.8465e-05
4.2409e-05
-1.44932e-05
3.58569e-05
-2.52213e-05
4.18923e-05
-3.25171e-05
4.69315e-05
-3.671e-05
5.23535e-05
-3.82483e-05
5.79304e-05
-3.78397e-05
6.3099e-05
-3.60508e-05
6.78163e-05
-3.26486e-05
7.31171e-05
-2.65733e-05
8.01879e-05
-1.68396e-05
8.88812e-05
-2.71777e-06
9.83743e-05
1.62245e-05
0.000107838
3.97313e-05
0.000115892
6.46785e-05
0.000119003
8.47176e-05
0.000112839
9.63372e-05
9.83764e-05
0.000100615
7.96649e-05
0.000100233
5.90283e-05
9.65839e-05
3.78267e-05
9.06039e-05
1.79582e-05
8.32079e-05
1.32478e-06
7.55592e-05
-1.1704e-05
-2.1943e-05
6.90371e-05
-1.33766e-05
4.92335e-05
-2.34825e-05
5.19982e-05
-3.04143e-05
5.38634e-05
-3.43022e-05
5.62415e-05
-3.5446e-05
5.90742e-05
-3.4407e-05
6.206e-05
-3.17147e-05
6.5124e-05
-2.73843e-05
6.87867e-05
-2.08643e-05
7.36679e-05
-1.15914e-05
7.96083e-05
8.39195e-07
8.59437e-05
1.6662e-05
9.20155e-05
3.57578e-05
9.67961e-05
5.63807e-05
9.83802e-05
7.48069e-05
9.44132e-05
8.83455e-05
8.48379e-05
9.66926e-05
7.13178e-05
0.000100542
5.51784e-05
0.000100539
3.78297e-05
9.75036e-05
2.09941e-05
9.25993e-05
6.22909e-06
8.69914e-05
-6.09611e-06
-1.64244e-05
8.14728e-05
-1.15168e-05
6.07502e-05
-2.05307e-05
6.10121e-05
-2.68341e-05
6.01668e-05
-3.03634e-05
5.97707e-05
-3.12691e-05
5.99798e-05
-2.99533e-05
6.07443e-05
-2.68731e-05
6.20438e-05
-2.22016e-05
6.41153e-05
-1.5732e-05
6.71983e-05
-7.18459e-06
7.10609e-05
3.63253e-06
7.51266e-05
1.68176e-05
7.88305e-05
3.22334e-05
8.13803e-05
4.88998e-05
8.17139e-05
6.47423e-05
7.85707e-05
7.79019e-05
7.16783e-05
8.75661e-05
6.16537e-05
9.35234e-05
4.9221e-05
9.59106e-05
3.54425e-05
9.52746e-05
2.16301e-05
9.25752e-05
8.92853e-06
8.87489e-05
-2.2698e-06
-1.20489e-05
8.43734e-05
-9.66738e-06
7.04176e-05
-1.74558e-05
6.88005e-05
-2.29734e-05
6.56844e-05
-2.60499e-05
6.28472e-05
-2.67409e-05
6.06708e-05
-2.53225e-05
5.93259e-05
-2.216e-05
5.88813e-05
-1.74862e-05
5.94415e-05
-1.13008e-05
6.10129e-05
-3.52246e-06
6.32826e-05
5.88903e-06
6.57152e-05
1.69389e-05
6.77806e-05
2.94454e-05
6.88738e-05
4.2832e-05
6.83273e-05
5.59367e-05
6.54659e-05
6.75655e-05
6.00496e-05
7.69115e-05
5.23077e-05
8.34816e-05
4.2651e-05
8.71388e-05
3.17853e-05
8.81686e-05
2.06003e-05
8.72041e-05
9.89297e-06
8.49034e-05
3.09361e-08
-8.88134e-06
8.17358e-05
-8.06865e-06
7.84862e-05
-1.47244e-05
7.54563e-05
-1.94783e-05
7.04383e-05
-2.2109e-05
6.54779e-05
-2.2615e-05
6.11768e-05
-2.11807e-05
5.78916e-05
-1.80863e-05
5.5787e-05
-1.35698e-05
5.49249e-05
-7.74947e-06
5.51927e-05
-6.82377e-07
5.62155e-05
7.57559e-06
5.74572e-05
1.69386e-05
5.84175e-05
2.72273e-05
5.85852e-05
3.8052e-05
5.75026e-05
4.87403e-05
5.47777e-05
5.85411e-05
5.02488e-05
6.68305e-05
4.40182e-05
7.31353e-05
3.63461e-05
7.72329e-05
2.76877e-05
7.9221e-05
1.86122e-05
7.94568e-05
9.65714e-06
7.83523e-05
1.13536e-06
-6.76274e-06
7.62337e-05
-6.7407e-06
8.52269e-05
-1.24362e-05
8.11517e-05
-1.65428e-05
7.4545e-05
-1.88119e-05
6.7747e-05
-1.91968e-05
6.15616e-05
-1.78081e-05
5.65029e-05
-1.48535e-05
5.28324e-05
-1.05574e-05
5.06288e-05
-5.10991e-06
4.97452e-05
1.33694e-06
4.97687e-05
8.64681e-06
5.01474e-05
1.66975e-05
5.03668e-05
2.53006e-05
4.99821e-05
3.41787e-05
4.86245e-05
4.29101e-05
4.60463e-05
5.10224e-05
4.21365e-05
5.80775e-05
3.69631e-05
6.37137e-05
3.07099e-05
6.77261e-05
2.36753e-05
7.01096e-05
1.62287e-05
7.1036e-05
8.73076e-06
7.07456e-05
1.42576e-06
-5.51624e-06
6.94991e-05
-5.61869e-06
9.08456e-05
-1.05176e-05
8.60505e-05
-1.41107e-05
7.81381e-05
-1.61264e-05
6.97627e-05
-1.64719e-05
6.19072e-05
-1.51911e-05
5.5222e-05
-1.24245e-05
5.00658e-05
-8.37519e-06
4.65795e-05
-3.27946e-06
4.46495e-05
2.6389e-06
4.38503e-05
9.19247e-06
4.35938e-05
1.62079e-05
4.33515e-05
2.35248e-05
4.26652e-05
3.09178e-05
4.12315e-05
3.81211e-05
3.8843e-05
4.48197e-05
3.54379e-05
5.07215e-05
3.10613e-05
5.55787e-05
2.58527e-05
5.92297e-05
2.00243e-05
6.1635e-05
1.38234e-05
6.2871e-05
7.49476e-06
6.30816e-05
1.2151e-06
-4.86331e-06
6.24287e-05
-4.61084e-06
9.54564e-05
-8.82466e-06
9.02643e-05
-1.20125e-05
8.13259e-05
-1.38744e-05
7.16246e-05
-1.42651e-05
6.22979e-05
-1.31608e-05
5.41177e-05
-1.06337e-05
4.75387e-05
-6.85844e-06
4.28042e-05
-2.09537e-06
3.98864e-05
3.37279e-06
3.83822e-05
9.31084e-06
3.76557e-05
1.55202e-05
3.71421e-05
2.18437e-05
3.63417e-05
2.81163e-05
3.49589e-05
3.41363e-05
3.28229e-05
3.97058e-05
2.98685e-05
4.46285e-05
2.61386e-05
4.87414e-05
2.17398e-05
5.19328e-05
1.68328e-05
5.41609e-05
1.15953e-05
5.54577e-05
6.19795e-06
5.59135e-05
7.59304e-07
-4.56617e-06
5.56163e-05
-3.61454e-06
9.90709e-05
-7.18173e-06
9.38315e-05
-1.00269e-05
8.41711e-05
-1.18121e-05
7.34098e-05
-1.23296e-05
6.28153e-05
-1.14796e-05
5.32677e-05
-9.2577e-06
4.53168e-05
-5.79492e-06
3.93414e-05
-1.36329e-06
3.54548e-05
3.714e-06
3.33049e-05
9.15504e-06
3.22147e-05
1.47306e-05
3.15665e-05
2.02859e-05
3.07864e-05
2.56881e-05
2.95567e-05
3.0801e-05
2.771e-05
3.54824e-05
2.51871e-05
3.96093e-05
2.20117e-05
4.30756e-05
1.82735e-05
4.58127e-05
1.40957e-05
4.77879e-05
9.6201e-06
4.90133e-05
4.97254e-06
4.95469e-05
2.25679e-07
-4.46682e-06
4.94476e-05
-2.52923e-06
0.0001016
-5.39819e-06
9.67004e-05
-7.90377e-06
8.66766e-05
-9.65949e-06
7.51655e-05
-1.03788e-05
6.35346e-05
-9.8707e-06
5.27596e-05
-8.03643e-06
4.34825e-05
-4.94421e-06
3.62492e-05
-8.67509e-07
3.13781e-05
3.85486e-06
2.85825e-05
8.86544e-06
2.72041e-05
1.39287e-05
2.65032e-05
1.88772e-05
2.5838e-05
2.35987e-05
2.48352e-05
2.79972e-05
2.33114e-05
3.19778e-05
2.12064e-05
3.54625e-05
1.8527e-05
3.83906e-05
1.53454e-05
4.07205e-05
1.17658e-05
4.24341e-05
7.90653e-06
4.35323e-05
3.87425e-06
4.40677e-05
-3.09701e-07
-4.45171e-06
4.40526e-05
-1.28301e-06
0.000102883
-3.28707e-06
9.87045e-05
-5.37543e-06
8.87649e-05
-7.10035e-06
7.68904e-05
-8.08913e-06
6.45234e-05
-8.02129e-06
5.26918e-05
-6.67051e-06
4.21317e-05
-4.03152e-06
3.36102e-05
-3.68859e-07
2.77154e-05
3.96698e-06
2.42467e-05
8.59341e-06
2.25777e-05
1.32121e-05
2.18846e-05
1.76543e-05
2.13958e-05
2.18209e-05
2.06685e-05
2.56402e-05
1.94922e-05
2.90543e-05
1.77923e-05
3.20143e-05
1.5567e-05
3.44881e-05
1.28716e-05
3.64599e-05
9.79406e-06
3.79251e-05
6.44129e-06
3.88922e-05
2.9071e-06
3.93614e-05
-7.78979e-07
-4.45769e-06
3.93675e-05
1.25089e-07
0.000102758
-7.32655e-07
9.95622e-05
-2.19586e-06
9.02281e-05
-3.77541e-06
7.84699e-05
-5.05092e-06
6.57988e-05
-5.53229e-06
5.31731e-05
-4.82091e-06
4.14203e-05
-2.7456e-06
3.15348e-05
4.49631e-07
2.45202e-05
4.32165e-06
2.03746e-05
8.50201e-06
1.83973e-05
1.26876e-05
1.7699e-05
1.66731e-05
1.74102e-05
2.03541e-05
1.69875e-05
2.36782e-05
1.61681e-05
2.66095e-05
1.4861e-05
2.91211e-05
1.30554e-05
3.12021e-05
1.07906e-05
3.28499e-05
8.14629e-06
3.40741e-05
5.21711e-06
3.48832e-05
2.09797e-06
3.52855e-05
-1.18131e-06
-4.46583e-06
3.52937e-05
1.70798e-06
0.00010105
2.23101e-06
9.90391e-05
1.69788e-06
9.07612e-05
5.60718e-07
7.9607e-05
-7.7946e-07
6.7139e-05
-1.7887e-06
5.41824e-05
-1.90069e-06
4.15323e-05
-6.77718e-07
3.03119e-05
1.81916e-06
2.20233e-05
5.10004e-06
1.70937e-05
8.75032e-06
1.4747e-05
1.24603e-05
1.3989e-05
1.5988e-05
1.38825e-05
1.92101e-05
1.37653e-05
2.20792e-05
1.32991e-05
2.45738e-05
1.23664e-05
2.66843e-05
1.09449e-05
2.84074e-05
9.06736e-06
2.9754e-05
6.79974e-06
3.07423e-05
4.22876e-06
3.13903e-05
1.45e-06
3.16861e-05
-1.4771e-06
-4.45185e-06
3.16721e-05
3.30034e-06
9.77496e-05
5.28942e-06
9.705e-05
5.90286e-06
9.01478e-05
5.53666e-06
7.99732e-05
4.56605e-06
6.81096e-05
3.40826e-06
5.53401e-05
2.65061e-06
4.22899e-05
2.81073e-06
3.01517e-05
4.1645e-06
2.06695e-05
6.55575e-06
1.47025e-05
9.50153e-06
1.18012e-05
1.26273e-05
1.08632e-05
1.56475e-05
1.08623e-05
1.84034e-05
1.10095e-05
2.08269e-05
1.08756e-05
2.28995e-05
1.02938e-05
2.46275e-05
9.21691e-06
2.60133e-05
7.68158e-06
2.70724e-05
5.74058e-06
2.78252e-05
3.47598e-06
2.82948e-05
9.80396e-07
2.84855e-05
-1.66778e-06
-4.3724e-06
2.8406e-05
4.89417e-06
9.28554e-05
8.21178e-06
9.37324e-05
9.91366e-06
8.84459e-05
1.03708e-05
7.95161e-05
9.95769e-06
6.85226e-05
9.04371e-06
5.62541e-05
8.08627e-06
4.32474e-05
7.53897e-06
3.0699e-05
7.78246e-06
2.0426e-05
8.98455e-06
1.35004e-05
1.09605e-05
9.82525e-06
1.3315e-05
8.5087e-06
1.57211e-05
8.45624e-06
1.79487e-05
8.78184e-06
1.98967e-05
8.92763e-06
2.15453e-05
8.64517e-06
2.28918e-05
7.87033e-06
2.39463e-05
6.62712e-06
2.47238e-05
4.96309e-06
2.52415e-05
2.9582e-06
2.55275e-05
6.94462e-07
2.55891e-05
-1.72943e-06
-4.22183e-06
2.54385e-05
6.42358e-06
8.64317e-05
1.08164e-05
8.93395e-05
1.33769e-05
8.58853e-05
1.44854e-05
7.84076e-05
1.45767e-05
6.84313e-05
1.40006e-05
5.68302e-05
1.31476e-05
4.41003e-05
1.23351e-05
3.15115e-05
1.19194e-05
2.08416e-05
1.21835e-05
1.32362e-05
1.31527e-05
8.85602e-06
1.461e-05
7.05139e-06
1.62521e-05
6.81419e-06
1.78504e-05
7.18354e-06
1.9268e-05
7.50996e-06
2.04597e-05
7.45352e-06
2.14153e-05
6.91472e-06
2.21401e-05
5.90231e-06
2.26386e-05
4.46452e-06
2.29282e-05
2.66863e-06
2.30262e-05
5.96485e-07
2.295e-05
-1.65328e-06
-3.97647e-06
2.27047e-05
7.76893e-06
7.86628e-05
1.29116e-05
8.41968e-05
1.60013e-05
8.27956e-05
1.75139e-05
7.68949e-05
1.79753e-05
6.79699e-05
1.77539e-05
5.70517e-05
1.71588e-05
4.46954e-05
1.64089e-05
3.22613e-05
1.57684e-05
2.14822e-05
1.54727e-05
1.3532e-05
1.5661e-05
8.66768e-06
1.62689e-05
6.44343e-06
1.71203e-05
5.96277e-06
1.80274e-05
6.27643e-06
1.88677e-05
6.6697e-06
1.95763e-05
6.74494e-06
2.01326e-05
6.35845e-06
2.05246e-05
5.51025e-06
2.07532e-05
4.23596e-06
2.08162e-05
2.60565e-06
2.07307e-05
6.81915e-07
2.05127e-05
-1.4353e-06
-3.63143e-06
2.01677e-05
8.64841e-06
7.00143e-05
1.41579e-05
7.86873e-05
1.74762e-05
7.94772e-05
1.92352e-05
7.51358e-05
2.00263e-05
6.71788e-05
2.02386e-05
5.68394e-05
2.0051e-05
4.48829e-05
1.95756e-05
3.27367e-05
1.89629e-05
2.20949e-05
1.83971e-05
1.40978e-05
1.80388e-05
9.026e-06
1.79513e-05
6.53087e-06
1.80754e-05
5.83873e-06
1.83084e-05
6.04341e-06
1.85651e-05
6.41299e-06
1.87944e-05
6.51562e-06
1.89557e-05
6.19721e-06
1.90309e-05
5.43504e-06
1.89987e-05
4.26813e-06
1.88534e-05
2.75093e-06
1.85942e-05
9.41077e-07
1.82342e-05
-1.07525e-06
-3.18425e-06
1.7787e-05
8.73012e-06
6.12842e-05
1.40885e-05
7.3329e-05
1.74894e-05
7.60763e-05
1.95587e-05
7.30664e-05
2.08439e-05
6.58936e-05
2.16282e-05
5.60551e-05
2.19727e-05
4.45384e-05
2.18812e-05
3.28282e-05
2.14116e-05
2.25646e-05
2.07184e-05
1.47909e-05
1.9976e-05
9.76842e-06
1.93195e-05
7.18736e-06
1.88135e-05
6.34473e-06
1.84479e-05
6.40903e-06
1.81848e-05
6.67606e-06
1.79763e-05
6.72413e-06
1.77845e-05
6.38901e-06
1.75732e-05
5.64638e-06
1.73118e-05
4.52955e-06
1.69781e-05
3.08465e-06
1.65645e-05
1.35467e-06
1.60776e-05
-5.88408e-07
-2.63855e-06
1.55319e-05
7.75592e-06
5.35282e-05
1.25977e-05
6.84871e-05
1.60921e-05
7.25819e-05
1.87153e-05
7.04432e-05
2.07141e-05
6.38949e-05
2.21849e-05
5.45843e-05
2.30983e-05
4.3625e-05
2.33833e-05
3.25431e-05
2.30552e-05
2.28926e-05
2.22525e-05
1.55937e-05
2.1179e-05
1.08419e-05
2.0047e-05
8.31945e-06
1.90208e-05
7.37089e-06
1.81744e-05
7.25547e-06
1.7503e-05
7.34739e-06
1.69621e-05
7.26504e-06
1.65001e-05
6.85101e-06
1.60681e-05
6.0784e-06
1.56246e-05
4.97312e-06
1.51417e-05
3.56752e-06
1.46015e-05
1.89493e-06
1.40057e-05
7.39385e-09
-2.00317e-06
1.33703e-05
5.63687e-06
4.78914e-05
1.01191e-05
6.40048e-05
1.38827e-05
6.88183e-05
1.72201e-05
6.71059e-05
2.00105e-05
6.11044e-05
2.2135e-05
5.24598e-05
2.34952e-05
4.22648e-05
2.40101e-05
3.20282e-05
2.36994e-05
2.32034e-05
2.27206e-05
1.65724e-05
2.13222e-05
1.22403e-05
1.97967e-05
9.84501e-06
1.83826e-05
8.78494e-06
1.72124e-05
8.42569e-06
1.62978e-05
8.26205e-06
1.55783e-05
7.98452e-06
1.49763e-05
7.45302e-06
1.44255e-05
6.6292e-06
1.38749e-05
5.52371e-06
1.32941e-05
4.14838e-06
1.26645e-05
2.52455e-06
1.19877e-05
6.84145e-07
-1.29622e-06
1.12808e-05
2.90862e-06
4.49827e-05
7.33028e-06
5.95831e-05
1.15296e-05
6.4619e-05
1.55218e-05
6.31137e-05
1.89834e-05