/*--------------------------------*- C++ -*----------------------------------*\
| =========                 |                                                 |
| \\      /  F ield         | OpenFOAM: The Open Source CFD Toolbox           |
|  \\    /   O peration     | Version:  2312                                  |
|   \\  /    A nd           | Website:  www.openfoam.com                      |
|    \\/     M anipulation  |                                                 |
\*---------------------------------------------------------------------------*/
FoamFile
{
    version     2.0;
    format      ascii;
    arch        "LSB;label=32;scalar=64";
    class       volScalarField;
    location    "1.2";
    object      alpha.water_0;
}
// * * * * * * * * * * * * * * * * * * * * * * * * * * * * * * * * * * * * * //

dimensions      [0 0 0 0 0 0 0];

internalField   nonuniform List<scalar> 
2268
(
3.24008e-11
2.90483e-11
2.64817e-11
2.44819e-11
2.30632e-11
2.20221e-11
2.12739e-11
2.00018e-11
1.86859e-11
1.85961e-11
1.98473e-11
2.24942e-11
2.69473e-11
3.3733e-11
4.58171e-11
6.67267e-11
1.00287e-10
1.55546e-10
2.30868e-10
3.04097e-10
3.72761e-10
3.72775e-10
4.68957e-10
5.70885e-11
3.23562e-11
2.69059e-11
2.75678e-11
3.05164e-11
3.33506e-11
3.56323e-11
3.72268e-11
3.87841e-11
4.04642e-11
4.47728e-11
5.15898e-11
6.12983e-11
7.71103e-11
1.07364e-10
1.6558e-10
2.73994e-10
4.62632e-10
8.21093e-10
1.51031e-09
2.75504e-09
3.39803e-09
1.79105e-09
8.93183e-10
2.94862e-10
8.20915e-11
3.56495e-11
3.30184e-11
3.76272e-11
4.39595e-11
4.94728e-11
5.24158e-11
5.40129e-11
5.50298e-11
5.7235e-11
7.38184e-11
1.0156e-10
1.36938e-10
1.85541e-10
2.6151e-10
3.621e-10
8.09514e-10
1.6513e-09
1.40195e-08
4.5083e-08
2.28196e-08
2.35461e-09
1.21961e-09
4.25078e-10
9.52441e-11
4.82456e-11
5.02526e-11
5.58949e-11
5.93792e-11
5.29602e-11
4.70023e-11
9.1519e-12
6.52396e-12
3.03596e-12
-1.08667e-19
-4.11802e-20
-3.0555e-14
-1.22545e-21
1.27188e-20
-5.39866e-21
-3.5993e-20
1.89186e-20
3.65748e-20
2.1837e-08
3.10169e-09
2.88781e-09
2.06711e-09
6.62874e-10
1.46123e-10
4.97617e-11
3.36994e-11
3.16439e-11
1.91958e-11
3.29323e-12
3.61105e-13
2.52881e-13
0.0259957
0.096612
0.154612
0.196154
0.227925
0.251477
0.261019
0.250879
0.231029
0.222023
0.217822
1.41874e-09
1.29321e-09
1.39979e-09
1.40858e-09
3.76775e-10
7.45606e-11
1.86481e-11
7.6323e-12
3.85245e-14
6.63356e-15
0.116078
0.40116
0.681306
0.819027
0.889875
0.92617
0.947899
0.961923
0.966902
0.960981
0.945749
0.92639
0.911951
0.338595
0.125923
0.00690926
1.41955e-09
4.21359e-09
7.17891e-10
3.09718e-12
2.71968e-13
0.0223548
0.322621
0.784526
0.980918
0.999972
0.999978
0.999981
0.999988
1
1
0.999987
0.99991
0.999907
0.99999
0.988699
0.933656
0.779406
0.419123
0.0982818
0.00686758
-1.23369e-20
-7.81956e-12
0.110822
0.567956
0.957276
0.999998
1
1
1
1
1
1
1
0.999997
0.999998
0.999999
0.999999
0.999989
0.0153171
0.0205704
0.00579
0.00337924
0.0122789
0.0579447
0.0853422
0.0832084
0.0641012
0.0497612
0.0454397
0.0438098
0.0412379
0.0407012
0.0413761
0.0413528
0.0413132
0.028459
0.0156179
0.0302109
0.0390254
0.00277267
0.00283456
0.0103607
0.235732
0.448369
0.462478
0.221084
0.0389493
0.0337453
0.0357192
0.0324463
0.0479116
0.0518937
0.0351054
0.0197238
0.0202598
0.0156283
0.121967
0.122937
0.0498878
0.00275904
0.356143
0.690464
0.690464
0.60251
0.135724
0.00148072
0.00147723
0.00147722
0.00444288
0.0218099
0.0500756
0.0466057
0.0197193
0.0197215
0.0150007
0.175495
0.415744
0.374931
0.450723
0.686808
0.644302
0.412648
0.125384
0.0433299
0.0440975
0.0569186
0.0896553
0.241335
0.350889
0.388002
0.302531
0.151549
0.0554287
0.014996
0.214168
0.695387
0.754814
0.755671
0.578881
0.255284
0.154984
0.223368
0.395873
0.440066
0.40125
0.410599
0.455228
0.746543
0.847468
0.749537
0.515532
0.255674
0.0766526
0.218376
0.710585
0.77815
0.741165
0.312538
0.0340112
0.129063
0.597758
0.792369
0.879987
0.770888
0.64876
0.824078
0.880148
0.88018
0.880093
0.851683
0.573664
0.252194
0.165431
0.548068
0.77776
0.625606
0.116898
0.0155313
0.0455039
0.51929
0.879127
0.880016
0.880056
0.880111
0.880117
0.880193
0.880193
0.880152
0.880119
0.801645
0.236436
0.161919
0.304778
0.66526
0.389259
0.0339401
0.0150594
0.0124739
0.0880119
0.612064
0.770203
0.856018
0.879998
0.812787
0.785173
0.876411
0.811632
0.757377
0.624746
0.256706
0.95503
0.99396
0.943904
0.788406
0.611176
0.573797
0.660058
0.876108
0.995439
1
1
1
1
1
1
1
0.999993
0.999948
0.999956
0.999996
0.999999
0.97064
0.993175
0.610564
0.987334
0.999124
0.999321
0.999795
0.999989
1
1
1
1
1
0.999997
0.999997
0.999997
1
1
0.999727
0.999556
0.999917
0.993306
0.644758
0.594082
0.597677
0.0339699
0.576631
0.941833
0.969082
0.99229
0.99933
0.999999
1
1
1
1
0.999999
1
1
0.999997
0.999944
0.999773
0.999762
0.974036
0.603568
0.534589
0.64121
0.769227
0.00145327
0.0150703
0.310989
0.435583
0.543713
0.670373
0.830791
0.940627
0.984428
0.996916
0.998841
0.999739
0.999929
0.996983
0.996492
0.997557
0.999752
0.990132
0.755855
0.672261
0.779009
0.907709
0.910054
0.00141023
0.00145327
0.00072589
0.0611892
0.0444257
0.0238553
0.072207
0.232859
0.430733
0.571418
0.727489
0.895574
0.959561
0.991469
0.998988
0.999313
0.999514
0.894421
0.741262
0.783037
0.858151
0.881156
0.733476
0.00118947
0.0041595
7.24482e-05
1.15115e-09
1.13455e-09
1.11807e-09
4.4658e-09
1.10749e-22
-4.47657e-08
0.134351
0.416454
0.760688
0.957393
0.99701
0.998058
0.985869
0.969571
0.86217
0.765417
0.742063
0.467274
0.219382
0.100486
0.000112012
0.00507333
0.000527513
1.42202e-05
1.11807e-09
0.000133957
0.000335238
0.00204455
0.0341829
0.106979
0.262488
0.565897
0.80445
0.901966
0.954488
0.91506
0.778643
0.602637
0.352857
0.121776
0.0108426
2.69365e-06
2.70611e-06
7.04127e-05
0.00248828
9.09305e-05
1.83995e-05
7.34617e-05
0.000745538
0.00325956
0.0071094
0.00788512
0.0042358
0.00304227
0.184619
0.638711
0.693295
0.70737
0.452995
0.192599
0.0575148
0.00172192
0.000100951
9.54826e-05
2.68796e-06
2.74723e-06
6.83973e-06
7.62663e-09
8.48701e-09
5.52678e-05
0.000229867
0.000353383
0.000359995
0.00023111
3.84597e-06
3.58013e-06
1.46851e-05
0.00845559
0.158047
0.287586
0.208165
0.0320189
2.24776e-05
0.000208319
0.000138514
2.57868e-05
1.99608e-05
1.34022e-05
1.63509e-05
2.43608e-08
2.52474e-08
5.26111e-06
4.4693e-05
4.56779e-05
3.85924e-06
1.1192e-06
1.24818e-06
3.65141e-06
0.000255766
0.00117575
0.000750037
1.52166e-07
1.46672e-07
1.53374e-07
7.84122e-05
2.33016e-05
4.78075e-05
2.31386e-05
4.71644e-06
1.62246e-05
1.74418e-05
1.62205e-05
3.3333e-07
9.58643e-07
7.1019e-06
2.15179e-05
3.4172e-06
2.24894e-07
7.36805e-07
2.4624e-05
0.000323819
0.000777173
0.00118815
0.000843302
1.56212e-07
9.49671e-06
2.23287e-05
1.58067e-05
1.45571e-06
1.41078e-08
1.4218e-08
8.3113e-07
6.08975e-06
8.67323e-06
3.68381e-06
1.6714e-06
1.67053e-06
1.33764e-06
3.28759e-06
1.64073e-07
1.0886e-07
1.02523e-07
1.09522e-07
0.000129443
0.00036536
0.000460359
0.000117408
1.43271e-07
3.32079e-06
5.62819e-06
1.43058e-08
1.18597e-08
1.63443e-08
3.06076e-08
1.44485e-08
2.00124e-09
1.96989e-09
2.00282e-09
1.67051e-06
1.66666e-06
2.9913e-08
2.82289e-08
3.38574e-08
5.94393e-09
5.96058e-09
4.47367e-07
6.07685e-06
1.13626e-05
4.338e-08
4.01994e-08
2.06398e-07
2.07989e-07
1.42421e-08
1.40451e-08
1.15471e-08
2.18191e-08
3.08191e-08
2.42412e-08
9.21843e-09
2.96589e-09
2.49594e-09
1.34723e-06
1.20711e-06
2.97055e-08
3.81892e-08
3.34171e-08
1.40548e-08
6.15207e-09
3.10097e-08
8.46055e-09
9.30938e-09
1.18318e-07
5.71006e-08
9.06748e-08
5.2052e-08
1.64896e-08
1.54079e-08
1.04481e-08
9.66276e-09
9.16173e-09
7.14603e-09
5.07095e-09
2.21313e-09
1.75488e-09
1.22878e-06
1.0282e-06
4.47475e-08
2.32594e-08
2.15819e-08
1.18632e-08
1.64414e-09
2.20203e-08
5.44643e-08
1.12477e-08
1.1197e-07
4.83645e-08
6.12603e-08
4.54951e-08
2.2735e-08
1.75047e-08
1.12432e-08
6.94132e-09
3.74464e-09
2.0314e-09
1.63732e-09
1.14129e-09
8.67607e-10
2.77366e-06
2.3481e-06
2.72342e-07
1.74408e-07
6.91449e-07
2.88093e-08
5.8943e-14
2.15813e-19
3.20221e-08
5.32457e-08
3.64721e-08
1.16265e-08
3.59938e-08
2.56366e-08
2.18706e-08
1.55876e-08
9.3695e-09
4.88709e-09
2.53593e-09
1.20951e-09
7.82954e-10
4.4565e-10
3.37516e-10
3.05137e-06
3.33886e-06
1.08427e-06
1.74652e-06
1.73691e-05
8.27808e-07
2.13497e-19
8.79447e-20
4.48322e-07
8.36031e-08
1.75014e-08
4.96889e-09
2.06557e-08
6.26312e-08
2.90644e-08
1.59335e-08
6.95477e-09
3.31695e-09
1.68952e-09
6.57797e-10
3.7054e-10
1.85862e-10
1.19082e-10
3.6168e-05
6.19019e-05
6.77354e-05
6.89193e-05
8.24121e-05
7.62544e-05
0.000109327
0.000122925
4.6038e-05
1.4108e-09
5.71902e-09
2.77064e-09
3.00307e-09
9.47152e-08
3.9495e-08
1.5743e-08
5.10963e-09
2.1735e-09
1.00283e-09
3.74659e-10
1.76854e-10
6.17681e-11
3.87052e-11
6.23923e-05
9.17843e-05
0.000194914
0.000216245
0.000284864
0.000324106
0.000324049
0.000324378
4.36081e-05
9.44764e-10
1.41204e-09
1.49293e-09
4.52268e-08
2.43786e-07
6.97459e-08
1.93646e-08
4.89535e-09
1.53209e-09
5.93825e-10
1.91458e-10
7.08545e-11
2.7931e-11
1.3539e-11
5.28949e-06
-3.78546e-10
1.11086e-05
1.6284e-05
1.9059e-05
2.93826e-05
0.00013913
0.000159773
1.42466e-08
5.332e-10
6.28026e-08
2.99807e-06
3.13119e-06
2.43988e-07
6.59198e-08
1.62821e-08
3.83473e-09
9.68727e-10
3.17034e-10
9.83476e-11
3.44287e-11
9.47134e-12
3.9525e-12
1.49154e-06
-8.17888e-18
-1.77724e-24
4.07877e-14
-9.89226e-10
2.58312e-07
3.64249e-05
7.42759e-07
1.01798e-07
9.77332e-07
3.7962e-06
4.0128e-06
2.82214e-06
2.10059e-07
4.35413e-08
7.65927e-09
1.70811e-09
4.16196e-10
1.32155e-10
3.85745e-11
1.30518e-11
4.55723e-12
1.67889e-12
1.19196e-06
1.73324e-06
2.45391e-06
6.16729e-07
5.04266e-08
7.71448e-08
3.21126e-07
1.12693e-07
1.86996e-06
3.99476e-06
4.14252e-06
4.09621e-06
5.15155e-07
9.67978e-08
1.23899e-08
2.57912e-09
5.10668e-10
1.30934e-10
4.3672e-11
1.63943e-11
6.54454e-12
2.03064e-12
7.04037e-13
6.41754e-06
2.42218e-05
2.58118e-05
2.767e-06
9.79946e-09
1.46196e-08
7.03641e-08
1.31828e-07
2.97602e-06
3.99544e-06
4.07288e-06
1.27451e-06
1.07682e-07
2.77862e-08
2.44734e-09
3.29592e-10
1.11642e-10
5.23562e-11
2.64653e-11
1.03789e-11
4.18441e-12
1.41722e-12
4.22073e-13
1.67798e-05
3.07097e-05
3.07708e-05
4.27297e-06
2.11057e-09
3.71116e-09
1.74821e-08
8.31748e-08
1.02375e-06
2.35245e-06
1.2858e-06
1.69168e-07
4.56191e-08
1.34436e-09
3.55596e-10
1.34597e-10
7.53582e-11
4.16377e-11
2.00657e-11
8.09752e-12
3.23793e-12
7.74861e-13
2.29538e-13
1.57816e-05
1.06643e-05
3.02031e-05
5.98326e-06
8.94784e-10
9.07627e-10
5.4553e-09
5.59796e-08
2.11033e-08
1.8961e-08
7.40953e-08
1.45566e-08
2.69296e-09
6.14372e-10
1.7755e-10
1.11031e-10
6.70553e-11
3.4758e-11
1.6401e-11
5.91423e-12
1.85372e-12
5.27301e-13
1.13011e-13
2.63031e-06
1.14403e-06
4.14714e-06
1.01526e-05
8.34562e-09
1.94982e-08
4.64497e-08
9.23892e-08
6.36884e-08
1.30964e-08
8.84142e-09
6.6211e-09
1.28383e-09
2.71291e-10
1.57024e-10
1.0482e-10
5.7944e-11
2.7491e-11
1.16037e-11
3.98195e-12
1.21992e-12
2.72683e-13
5.91761e-14
5.85379e-07
6.88483e-07
1.01133e-06
6.33764e-06
8.20318e-09
5.47495e-08
9.23707e-08
9.26147e-08
5.33054e-08
1.48777e-08
1.02366e-08
2.91105e-09
5.28054e-10
2.57353e-10
1.69835e-10
9.39431e-11
4.53745e-11
1.92991e-11
7.47096e-12
2.2509e-12
5.86585e-13
1.32524e-13
2.02534e-14
5.84168e-07
5.73327e-07
8.75398e-07
3.4816e-07
1.54467e-08
5.79951e-08
9.26331e-08
5.50033e-08
1.63563e-08
1.02723e-08
4.28137e-09
9.83264e-10
4.25505e-10
2.65198e-10
1.44927e-10
7.01398e-11
3.03823e-11
1.15639e-11
3.87466e-12
1.14559e-12
2.95321e-13
5.78969e-14
9.95046e-15
8.68971e-07
5.66698e-07
1.2621e-07
6.95227e-08
2.94296e-08
4.1433e-08
3.71795e-08
1.50621e-08
1.13016e-08
5.16381e-09
1.46295e-09
6.80419e-10
3.87199e-10
2.09085e-10
1.00986e-10
4.37714e-11
1.71415e-11
6.04302e-12
1.90118e-12
5.07503e-13
1.13194e-13
2.12223e-14
2.21933e-15
1.21459e-06
1.18705e-06
5.01576e-08
4.93059e-08
5.41979e-08
5.88014e-08
1.16951e-08
4.57604e-09
5.58021e-09
2.13446e-09
9.96335e-10
5.43373e-10
2.81104e-10
1.35076e-10
5.92811e-11
2.37903e-11
8.63357e-12
2.79113e-12
7.90925e-13
1.89774e-13
3.90505e-14
5.87334e-15
9.00046e-16
8.92416e-07
1.47742e-06
4.89922e-08
5.0192e-08
6.4451e-08
6.72702e-08
1.59074e-08
2.48511e-09
2.77546e-09
1.36911e-09
7.20094e-10
3.7143e-10
1.74238e-10
7.45351e-11
3.10517e-11
1.16054e-11
3.86583e-12
1.12328e-12
2.85784e-13
6.20291e-14
1.11402e-14
1.74421e-15
1.99921e-16
7.30977e-07
1.72946e-06
4.49569e-07
4.91025e-08
6.94292e-08
6.70833e-08
1.03243e-08
2.48572e-09
1.68647e-09
8.79175e-10
4.4847e-10
2.19591e-10
1.00944e-10
4.07874e-11
1.50123e-11
5.20319e-12
1.54527e-12
4.03182e-13
9.16568e-14
1.80064e-14
3.10576e-15
3.72996e-16
4.87713e-17
6.83736e-07
1.72608e-06
1.30279e-06
7.86011e-08
3.28654e-08
1.24911e-08
3.86017e-09
1.67895e-09
1.00018e-09
5.3985e-10
2.70968e-10
1.25902e-10
5.35666e-11
2.04959e-11
6.4421e-12
1.97011e-12
5.16285e-13
1.19764e-13
2.44454e-14
4.32838e-15
5.84653e-16
7.50699e-17
7.95556e-18
5.60043e-07
1.63889e-06
1.58558e-06
1.86978e-07
2.26269e-08
1.28847e-09
1.27551e-09
9.97263e-10
6.27237e-10
3.31392e-10
1.59251e-10
6.6741e-11
2.47911e-11
8.38423e-12
2.357e-12
6.60074e-13
1.55608e-13
3.22771e-14
5.34253e-15
8.53232e-16
1.17103e-16
1.29701e-17
1.1801e-18
4.42835e-07
3.9511e-07
8.35122e-07
1.53309e-07
2.5243e-08
1.48618e-09
9.88438e-10
6.9239e-10
4.10689e-10
1.97555e-10
8.21319e-11
3.15063e-11
1.08624e-11
2.88048e-12
8.19147e-13
1.92376e-13
3.93457e-14
7.06045e-15
1.11476e-15
1.53462e-16
1.81539e-17
1.83209e-18
1.58417e-19
2.58793e-07
2.92083e-08
2.03458e-08
2.2505e-08
9.12848e-09
2.69335e-09
1.21957e-09
5.92094e-10
2.55643e-10
1.10159e-10
4.05842e-11
1.33837e-11
3.83434e-12
1.07858e-12
2.55075e-13
5.27631e-14
9.52616e-15
1.51791e-15
2.12722e-16
2.6038e-17
2.75809e-18
2.50241e-19
1.9246e-20
1.25886e-07
3.89255e-08
1.98996e-08
1.10871e-08
5.92603e-09
2.63161e-09
1.03587e-09
4.0191e-10
1.52798e-10
4.75881e-11
1.66266e-11
4.59452e-12
1.3472e-12
3.25969e-13
6.91613e-14
1.28853e-14
2.09038e-15
2.92517e-16
3.61248e-17
3.45327e-18
3.41372e-19
2.69195e-20
1.74566e-21
3.71532e-08
2.26892e-08
1.85101e-08
9.55605e-09
4.10114e-09
1.56815e-09
5.80891e-10
1.9584e-10
6.33637e-11
2.02565e-11
5.50404e-12
1.49313e-12
3.56381e-13
8.23688e-14
1.62408e-14
2.76491e-15
4.07417e-16
5.21524e-17
5.07169e-18
4.88325e-19
3.83004e-20
2.48498e-21
1.32011e-22
5.26943e-09
8.36657e-09
8.52325e-09
4.56815e-09
1.79919e-09
7.04874e-10
2.35929e-10
7.85207e-11
2.20952e-11
6.34814e-12
1.63174e-12
3.61644e-13
9.55346e-14
1.85346e-14
3.48143e-15
5.46691e-16
7.31949e-17
8.305e-18
7.85807e-19
6.09464e-20
3.80572e-21
1.93057e-22
7.99134e-24
3.04097e-09
3.12905e-09
3.06322e-09
1.46956e-09
6.30448e-10
2.24653e-10
7.3049e-11
2.30552e-11
6.61279e-12
1.85168e-12
4.64026e-13
1.02596e-13
1.96187e-14
3.54687e-15
6.1898e-16
9.04361e-17
1.11963e-17
1.1729e-18
9.9851e-20
6.76115e-21
3.55659e-22
1.401e-23
4.10082e-25
1.03388e-09
1.06466e-09
9.52995e-10
4.70041e-10
1.93594e-10
6.88883e-11
2.31246e-11
7.03484e-12
1.93668e-12
4.98031e-13
1.17698e-13
2.4239e-14
4.56875e-15
7.77193e-16
1.18528e-16
1.55182e-17
1.7005e-18
1.55667e-19
1.15834e-20
6.76983e-22
2.96887e-23
9.32677e-25
1.56111e-26
3.46868e-10
3.8472e-10
2.7505e-10
1.34022e-10
5.31993e-11
1.85865e-11
5.94725e-12
1.72712e-12
4.47139e-13
1.07878e-13
2.40003e-14
4.67101e-15
8.22092e-16
1.27749e-16
1.73545e-17
2.0848e-18
2.20239e-19
1.79174e-20
1.17769e-21
5.87369e-23
2.10026e-24
5.02042e-26
7.01329e-28
0.641498
0.503142
0.472752
0.401881
0.594082
0.643183
0.706267
0.738333
0.848569
0.884257
0.888831
0.780852
0.909431
0.791393
0.572547
0.495545
0.497288
0.222632
0.135372
0.12733
0.0147062
0.0031619
0.0744592
0.0945625
2.71978e-06
0.000104083
0.00654898
0.0176411
6.88772e-06
5.92091e-06
4.37257e-06
2.58976e-05
1.00049e-05
2.34377e-09
2.14054e-09
2.15008e-09
1.99631e-09
1.99959e-09
2.13267e-09
1.02811e-08
1.98239e-09
2.18278e-09
7.17399e-09
1.64835e-08
2.71472e-09
6.79487e-09
1.28184e-08
2.48349e-08
1.98344e-09
2.25194e-09
2.65892e-09
3.00172e-09
1.59036e-09
1.56274e-09
1.13632e-09
9.27619e-10
7.93242e-10
5.77856e-10
4.93463e-10
4.54375e-10
2.95696e-10
2.38257e-10
1.79547e-10
1.25635e-10
9.75614e-11
6.68763e-11
4.53879e-11
2.511e-11
2.2077e-11
1.10537e-11
6.6122e-12
3.45972e-12
5.27684e-12
2.04789e-12
8.39653e-13
6.889e-13
9.52371e-13
2.507e-13
2.21429e-13
2.20898e-13
2.05911e-13
6.30531e-14
5.35791e-14
6.70501e-14
7.58352e-14
1.10836e-14
1.3768e-14
1.47507e-14
7.0415e-14
3.38377e-15
2.5122e-15
3.41252e-15
1.48641e-14
8.24102e-16
5.36114e-16
5.25123e-16
2.3557e-14
2.91124e-15
2.57948e-16
1.21728e-16
1.13114e-14
2.28863e-15
3.83744e-16
7.11664e-17
7.30966e-15
2.20679e-15
3.48665e-16
8.7301e-17
1.85333e-15
4.68428e-16
1.21325e-16
1.96016e-17
6.52395e-16
1.50015e-16
2.74249e-17
5.76405e-18
1.85698e-16
3.16288e-17
5.84776e-18
8.93624e-19
4.19111e-17
6.85471e-18
1.27048e-18
2.24215e-19
8.37304e-18
1.18429e-18
1.7544e-19
1.5037e-20
1.32564e-18
2.03257e-19
2.42694e-20
3.86838e-21
1.6994e-19
2.41375e-20
3.34001e-21
3.48862e-22
1.98675e-20
2.16109e-21
2.40362e-22
2.87655e-23
2.42614e-21
2.72948e-22
2.6776e-23
1.91595e-24
1.85968e-22
1.78498e-23
1.53617e-24
1.07312e-25
1.13265e-23
8.48627e-25
5.36068e-26
2.42425e-27
5.08014e-25
2.66161e-26
1.21536e-27
4.23083e-29
1.49939e-26
6.68699e-28
2.27924e-29
1.82744e-31
4.86755e-28
1.10821e-29
1.93447e-31
1.61952e-31
1.22306e-29
1.383e-31
1.29004e-32
2.00674e-31
0.271849
0.680033
0.313239
0.112968
0.051448
0.043841
0.00588553
0.00841916
0.0402701
0.212841
0.380845
0.429871
0.25103
0.234581
0.396319
0.199513
0.156723
0.166801
0.303947
0.734885
0.797106
0.660143
0.376748
0.153038
0.0621951
0.0064991
0.000613901
0.000172072
5.83188e-05
6.84813e-05
2.88618e-17
1.01593e-21
1.05965e-21
3.58436e-16
3.59667e-12
9.54568e-05
0.0221994
0.151072
0.799387
0.800073
0.632521
0.362148
0.147711
0.0241244
0.0131957
0.000844439
0.000180196
0.0142709
0.0167033
0.0106597
8.42574e-05
8.45285e-24
7.128e-07
2.49512e-06
4.8192e-09
3.46544e-09
3.46658e-09
0.502412
0.488456
0.349438
0.155283
0.0155855
0.013932
0.00548431
0.000630578
0.000634728
0.00294264
0.0147945
0.0147765
0.00257784
2.41909e-19
3.15635e-06
6.77417e-06
4.03742e-06
3.86601e-09
2.84558e-08
0.128309
0.0837257
0.0627441
0.0431384
0.0338125
0.0194098
0.000647777
1.96841e-07
1.65776e-07
2.27849e-05
0.00485938
0.0110517
0.0012167
-2.25877e-15
-4.91763e-13
8.35574e-10
1.28896e-09
1.37921e-08
3.04731e-08
0.0986952
0.0521875
0.0443294
0.0190997
1.99914e-11
-1.31977e-09
-1.63418e-07
2.16643e-06
4.27796e-07
4.0224e-06
1.27276e-05
0.000509599
0.000449126
1.12417e-17
1.41708e-10
1.27737e-09
3.0995e-11
3.01516e-11
2.80744e-10
0.0184381
0.0198312
0.00784122
-2.5435e-08
-3.37973e-09
7.36761e-06
1.62709e-05
6.94349e-06
8.21527e-07
3.75274e-06
8.31825e-06
2.0312e-06
2.03987e-06
5.40992e-06
5.22585e-11
1.83969e-10
1.66865e-10
2.94937e-11
1.11994e-11
0.00120898
7.61784e-10
7.92862e-10
2.77542e-06
4.96564e-08
2.68918e-07
9.5905e-07
1.32108e-06
3.31155e-07
3.64513e-06
7.08619e-06
4.61296e-06
1.9791e-06
1.52617e-07
2.01933e-11
1.35371e-10
1.03303e-10
2.69892e-11
1.08264e-11
2.14028e-09
1.09834e-07
4.28606e-08
6.99589e-08
2.83521e-08
2.54606e-08
2.65025e-08
1.26515e-07
2.55219e-07
5.23386e-07
7.8978e-07
1.18744e-06
3.36478e-07
5.23332e-11
7.04677e-11
1.27502e-10
1.14969e-10
4.99389e-11
3.95271e-12
2.63278e-08
5.02267e-08
2.28137e-08
8.7527e-08
1.14117e-07
1.14421e-07
5.35324e-08
4.95321e-09
5.76222e-09
1.16882e-10
1.16701e-10
1.19638e-10
1.19759e-10
1.68249e-10
2.23011e-10
2.38313e-10
2.12693e-10
7.71604e-11
5.21679e-12
2.28244e-08
2.0832e-08
2.08478e-08
2.11492e-08
4.86282e-08
1.25588e-07
1.25937e-07
1.14768e-07
6.02391e-08
1.14965e-08
3.14826e-09
6.82018e-10
6.42435e-10
5.89361e-10
5.1256e-10
3.85766e-10
2.59015e-10
8.71264e-11
6.39624e-12
5.0356e-08
6.97459e-08
7.04472e-08
4.24971e-08
2.09924e-08
6.68448e-09
3.28035e-08
6.75341e-08
7.26282e-08
5.35302e-08
1.8756e-08
4.34555e-09
1.42271e-09
8.53675e-10
6.42747e-10
3.95791e-10
2.68079e-10
8.20416e-11
6.06328e-12
2.99508e-09
5.15864e-09
8.74123e-09
1.05764e-08
1.06071e-08
5.85705e-09
1.42771e-09
8.99534e-10
8.32647e-09
7.55571e-09
7.41873e-09
6.38826e-09
3.47805e-09
1.25013e-09
7.13063e-10
3.50432e-10
2.06821e-10
5.22924e-11
3.88178e-12
6.2891e-10
5.11389e-10
1.73097e-10
3.08659e-10
4.0242e-10
5.05622e-10
7.50041e-10
6.79321e-10
5.0431e-10
4.96737e-10
4.96579e-10
6.57523e-10
9.88279e-10
9.56494e-10
6.09525e-10
2.79516e-10
1.30307e-10
2.85352e-11
2.69165e-12
3.44881e-10
2.10855e-10
1.41416e-10
1.53539e-10
3.29633e-10
6.16239e-10
9.26909e-10
1.18984e-09
1.20288e-09
1.09585e-09
7.73925e-10
4.62632e-10
3.63657e-10
3.12653e-10
2.38582e-10
1.53692e-10
8.00079e-11
1.72732e-11
2.40236e-12
7.977e-11
3.78597e-11
3.21503e-11
3.98255e-11
7.417e-11
2.40866e-10
4.5553e-10
7.62118e-10
1.02365e-09
1.00156e-09
7.90112e-10
4.49552e-10
2.70987e-10
1.83006e-10
1.27943e-10
9.06311e-11
4.55607e-11
9.18068e-12
2.23749e-12
1.27459e-11
8.30462e-12
8.54337e-12
1.59162e-11
2.57382e-11
4.6554e-11
1.22644e-10
2.24875e-10
2.75532e-10
2.58372e-10
2.14486e-10
1.55475e-10
1.11823e-10
8.42856e-11
6.71376e-11
4.61832e-11
2.20185e-11
4.72553e-12
2.04077e-12
1.55556e-12
2.16767e-12
3.28206e-12
5.19566e-12
9.49065e-12
2.05019e-11
3.87889e-11
5.37732e-11
5.02197e-11
4.74028e-11
4.46306e-11
4.11218e-11
4.04691e-11
3.90278e-11
3.30453e-11
2.41128e-11
7.72937e-12
2.82072e-12
1.78466e-12
3.87422e-13
5.96627e-13
9.52339e-13
1.61289e-12
3.431e-12
8.14096e-12
1.58146e-11
1.69473e-11
1.78816e-11
1.85221e-11
1.99668e-11
2.22073e-11
2.27749e-11
2.12623e-11
1.65313e-11
8.22653e-12
2.64844e-12
2.12032e-12
1.62531e-12
2.01358e-13
2.12492e-13
3.04272e-13
8.04294e-13
1.68985e-12
3.03943e-12
4.27585e-12
5.75073e-12
7.62245e-12
1.00521e-11
1.15186e-11
1.17157e-11
1.11443e-11
8.40099e-12
5.0511e-12
1.89881e-12
1.1723e-12
1.78155e-12
1.44497e-12
7.07492e-14
7.61345e-14
1.13453e-13
3.3844e-13
6.14854e-13
9.89455e-13
1.46581e-12
2.39122e-12
3.68457e-12
4.97224e-12
5.08448e-12
4.96348e-12
3.04303e-12
1.04513e-12
4.35532e-13
3.1097e-13
7.53193e-13
1.64541e-12
1.28266e-12
1.79893e-14
1.96946e-14
3.54827e-14
1.00783e-13
1.98166e-13
3.02459e-13
5.6498e-13
1.0421e-12
1.68272e-12
1.8398e-12
1.84542e-12
1.23568e-12
4.63992e-13
7.93376e-14
3.24782e-14
1.18954e-13
6.21022e-13
1.55488e-12
1.13094e-12
3.3093e-15
4.15596e-15
8.84081e-15
2.47645e-14
5.33486e-14
1.07996e-13
2.31965e-13
4.2533e-13
5.1917e-13
5.47885e-13
3.1543e-13
1.08233e-13
1.74293e-14
1.76008e-15
1.39843e-14
1.00098e-13
5.1903e-13
1.30802e-12
9.8607e-13
6.30879e-16
8.8933e-16
2.25783e-15
7.38614e-15
1.82613e-14
4.46679e-14
8.83395e-14
1.17374e-13
1.29623e-13
7.02132e-14
2.3899e-14
3.77484e-15
4.31254e-16
9.58918e-16
1.39096e-14
9.55462e-14
4.89394e-13
1.16155e-12
8.66951e-13
1.01684e-16
1.49375e-16
5.76418e-16
2.46689e-15
7.8981e-15
1.54862e-14
2.13071e-14
2.35624e-14
1.55675e-14
5.38244e-15
7.22497e-16
6.57738e-17
2.70023e-16
1.38781e-15
1.42169e-14
1.02266e-13
4.88157e-13
1.0095e-12
7.40002e-13
2.0049e-17
2.81088e-17
1.62491e-16
8.81153e-16
2.58486e-15
3.56157e-15
4.03304e-15
3.96799e-15
1.16832e-15
1.556e-16
9.11112e-18
3.47575e-17
3.29382e-16
2.8545e-15
1.74231e-14
1.10947e-13
4.68206e-13
8.81202e-13
4.87702e-13
9.23005e-18
6.07814e-18
4.97476e-17
2.55458e-16
4.00382e-16
5.18556e-16
5.38059e-16
1.91471e-16
4.89421e-17
6.64287e-18
1.45372e-18
3.47427e-17
3.85518e-16
3.58644e-15
2.48699e-14
1.32112e-13
4.90018e-13
6.95429e-13
3.41679e-13
1.90858e-18
1.56583e-18
1.30597e-17
3.60341e-17
5.1493e-17
5.5079e-17
5.36737e-17
1.38101e-17
1.55521e-18
1.01474e-19
7.80921e-19
3.38047e-17
3.94776e-16
3.99216e-15
3.47067e-14
1.80443e-13
4.96589e-13
5.99791e-13
2.25546e-13
5.00215e-19
3.45511e-19
1.99555e-18
3.53743e-18
5.03994e-18
5.27263e-18
4.49584e-18
7.97746e-19
4.19667e-20
2.26173e-20
4.69142e-19
1.82455e-17
2.64927e-16
4.00691e-15
3.72032e-14
1.87763e-13
4.51024e-13
4.30844e-13
1.53233e-13
7.68451e-20
6.51985e-20
2.11966e-19
3.32469e-19
3.7705e-19
3.70854e-19
2.51809e-19
6.17841e-20
3.52852e-21
1.82949e-20
3.5252e-19
8.82438e-18
1.5825e-16
3.50116e-15
3.04985e-14
1.39065e-13
2.80145e-13
2.78039e-13
8.95971e-14
1.61269e-20
7.31193e-21
1.49663e-20
2.17048e-20
2.31951e-20
1.83737e-20
8.43602e-21
1.22248e-21
1.06727e-21
1.4673e-20
3.00088e-19
7.70496e-18
1.41925e-16
2.82362e-15
1.90034e-14
6.64315e-14
1.28685e-13
1.13069e-13
4.4139e-14
1.50382e-21
6.40878e-22
1.00045e-21
1.23551e-21
1.12638e-21
6.73391e-22
1.56063e-22
5.89242e-23
5.93039e-22
9.34381e-21
1.9097e-19
4.32904e-18
5.7067e-17
1.22064e-15
9.01326e-15
2.55015e-14
4.09172e-14
4.85186e-14
1.78711e-14
2.09954e-22
3.81765e-23
5.70209e-23
5.95798e-23
4.25491e-23
1.48607e-23
5.60027e-24
3.09413e-23
3.06119e-22
4.20549e-21
8.51339e-20
1.99767e-18
2.58324e-17
4.68969e-16
3.11071e-15
8.07885e-15
1.24122e-14
1.16016e-14
5.8791e-15
2.11091e-23
2.28991e-24
2.75223e-24
2.42739e-24
1.20524e-24
7.35637e-25
3.51976e-24
2.18467e-23
1.41236e-22
1.24365e-21
2.25662e-20
5.73923e-19
7.92972e-18
1.25198e-16
8.16007e-16
1.69819e-15
2.25896e-15
2.73845e-15
1.5509e-15
1.37187e-24
1.06836e-25
9.81084e-26
6.26356e-26
8.29079e-26
4.68848e-25
2.92428e-24
1.56956e-23
6.92157e-23
3.20115e-22
3.24867e-21
9.12105e-20
1.60842e-18
2.25024e-17
1.52643e-16
3.05043e-16
4.00064e-16
2.43257e-16
3.73018e-16
6.81065e-26
4.82284e-27
3.83045e-27
7.45235e-27
5.65255e-26
3.97745e-25
2.2781e-24
1.03203e-23
3.7872e-23
1.18004e-22
4.46268e-22
7.52681e-21
1.81922e-19
2.24296e-18
1.73021e-17
5.03336e-17
6.74788e-17
5.83216e-17
7.2562e-17
2.4963e-27
1.99203e-28
5.64059e-28
5.41651e-27
4.80748e-26
3.0667e-25
1.52492e-24
6.0436e-24
1.93344e-23
5.05495e-23
1.2211e-22
3.88258e-22
5.44832e-21
2.33856e-19
2.39684e-18
4.60059e-18
3.74138e-18
4.6541e-18
1.55971e-17
3.81149e-29
3.59564e-29
4.48276e-28
4.84368e-27
3.76746e-26
2.08051e-25
8.8782e-25
3.12155e-24
8.81545e-24
2.0301e-23
4.1842e-23
7.43988e-23
2.53657e-22
1.28948e-20
1.60512e-19
2.7125e-19
3.27999e-19
9.9044e-19
3.49429e-18
2.32311e-30
3.00258e-29
4.37035e-28
4.06346e-27
2.54343e-26
1.17176e-25
4.25437e-25
1.25417e-24
3.07849e-24
6.56938e-24
1.24598e-23
1.90828e-23
3.00062e-23
2.26912e-22
5.63292e-21
1.48777e-20
4.10671e-20
2.76339e-19
1.14249e-18
1.93388e-30
3.42332e-29
3.91275e-28
2.75945e-27
1.32284e-26
4.67783e-26
1.30561e-25
3.15484e-25
6.70464e-25
1.30606e-24
2.17551e-24
3.05049e-24
4.4511e-24
3.71542e-24
5.51208e-23
8.1282e-22
9.69375e-21
7.23947e-20
3.33449e-19
2.52364e-30
3.15943e-29
2.47266e-28
1.23425e-27
4.53648e-27
1.36414e-26
3.49116e-26
7.37349e-26
1.37027e-25
2.49549e-25
3.91368e-25
5.66231e-25
7.31021e-25
4.89309e-25
8.92485e-24
1.46779e-22
1.27086e-21
1.13263e-20
3.69284e-20
2.03912e-30
1.59069e-29
7.74047e-29
2.71842e-28
7.55092e-28
1.80055e-27
3.83072e-27
7.38041e-27
1.25841e-26
1.86139e-26
2.65897e-26
3.39461e-26
4.22596e-26
1.68669e-26
1.41449e-25
3.8292e-24
5.05857e-23
2.43176e-22
6.82136e-23
)
;

boundaryField
{
    leftWall
    {
        type            zeroGradient;
    }
    rightWall
    {
        type            zeroGradient;
    }
    lowerWall
    {
        type            zeroGradient;
    }
    atmosphere
    {
        type            inletOutlet;
        inletValue      uniform 0;
        value           nonuniform List<scalar> 
46
(
3.46868e-10
3.8472e-10
2.7505e-10
1.34022e-10
5.31993e-11
1.85865e-11
5.94725e-12
1.72712e-12
4.47139e-13
1.07878e-13
2.40003e-14
4.67101e-15
8.22092e-16
1.27749e-16
1.73545e-17
2.0848e-18
2.20239e-19
1.79174e-20
1.17769e-21
5.87369e-23
2.10026e-24
5.02042e-26
7.01329e-28
1.22306e-29
1.383e-31
1.29004e-32
0
0
0
0
0
0
0
0
0
0
0
0
0
0
0
0
0
0
0
0
)
;
    }
    defaultFaces
    {
        type            empty;
    }
}


// ************************************************************************* //
