/*--------------------------------*- C++ -*----------------------------------*\
| =========                 |                                                 |
| \\      /  F ield         | OpenFOAM: The Open Source CFD Toolbox           |
|  \\    /   O peration     | Version:  2312                                  |
|   \\  /    A nd           | Website:  www.openfoam.com                      |
|    \\/     M anipulation  |                                                 |
\*---------------------------------------------------------------------------*/
FoamFile
{
    version     2.0;
    format      ascii;
    arch        "LSB;label=32;scalar=64";
    class       volScalarField;
    location    "1.2";
    object      alphas;
}
// * * * * * * * * * * * * * * * * * * * * * * * * * * * * * * * * * * * * * //

dimensions      [0 0 0 0 0 0 0];

internalField   nonuniform List<scalar> 
2268
(
2
2
2
2
2
2
2
2
2
2
2
2
2
2
2
2
2
2
2
2
2
1.99995
1.99993
2
2
2
2
2
2
2
2
2
2
2
2
2
2
2
2
2
2
2
2
2
1.99998
1.99994
2
2
2
2
2
2
2
2
2
2
2
2
2
2
2
2
2
2
2
2
2
2
2
2
2
2
2
2
2
2
2
2
2
2
2
2
2
2
2
2
1.99999
1.99999
2.00002
2.00006
2.00002
2
2
2
2
2
2
2
2
2
2
2
2
2
1.96868
1.8255
1.70112
1.60743
1.53585
1.48388
1.46293
1.4824
1.5208
1.53644
1.54192
1.99735
2
2
2
2
2
2
2
2
2
1.83743
1.30237
0.701853
0.391496
0.230968
0.147546
0.0992001
0.0691717
0.0584877
0.0693377
0.0984832
0.136687
0.15893
1.05765
1.63523
1.97196
2
2
2
2
2
1.99152
1.51257
0.55516
0.0660244
3.07541e-05
2.2888e-05
1.9701e-05
1.24781e-05
2.5149e-07
4.16865e-07
7.06408e-06
7.78373e-05
8.5625e-05
8.60744e-06
0.0197577
0.121138
0.303376
1.04765
1.74821
1.97398
1.99867
2
1.85255
1.04478
0.157317
2.69699e-06
1.62535e-07
1.23159e-07
1.08824e-07
5.84337e-08
4.11179e-08
3.88436e-08
5.07367e-08
5.95986e-06
4.567e-06
2.81663e-06
1.69277e-06
9.18461e-06
1.38635
1.37008
1.351
1.16813
1.15674
1.35393
1.75669
1.79155
1.83212
1.86159
1.8707
1.87588
1.88342
1.886
1.88069
1.88153
1.9035
1.92857
1.89986
1.24153
1.27751
1.23351
1.16968
1.17374
0.930383
0.72706
0.775355
1.40553
1.80352
1.81479
1.78072
1.77861
1.79552
1.85278
1.90559
1.95972
1.95846
1.90021
1.15128
1.24213
1.20253
1.2026
0.83255
0.498505
0.486824
0.623453
1.38143
1.53843
1.51128
1.49932
1.45643
1.42202
1.47531
1.56913
1.7527
1.95812
1.91431
1.10365
0.994905
1.09829
0.791216
0.524939
0.6952
1.26205
1.61096
1.62091
1.5769
1.4926
1.31568
0.916875
0.720679
0.705502
0.93656
1.26032
1.68511
1.9444
1.0713
0.671581
0.492363
0.436535
0.89893
1.68791
1.78304
1.61378
1.28997
1.05592
0.724864
0.617467
0.54659
0.253805
0.190409
0.312902
0.617653
1.13279
1.8278
1.00877
0.605229
0.422497
0.515507
1.52145
1.87161
1.56064
0.952809
0.446504
0.193648
0.254357
0.352396
0.179627
0.159917
0.16531
0.159925
0.170319
0.508995
1.31552
1.05432
0.722554
0.379223
0.748092
1.46818
1.29056
1.38489
0.936865
0.250231
0.233783
0.157721
0.137131
0.149443
0.155466
0.153128
0.143628
0.140472
0.234759
0.923879
1.06719
0.956891
0.47058
0.912674
1.16395
1.14725
1.24294
1.26844
0.782705
0.51611
0.261245
0.171512
0.249857
0.271234
0.127278
0.194132
0.242845
0.408478
0.85021
0.163708
0.0211139
0.0804422
0.367175
0.728355
0.842536
0.719015
0.316862
0.0228158
3.22182e-07
3.07108e-07
3.00195e-07
5.10184e-07
4.20913e-07
1.49718e-07
5.92149e-08
5.83906e-06
5.23089e-05
5.1228e-05
7.5751e-06
2.51887e-06
0.0428057
0.00851844
1.04736
0.0644621
0.00308955
0.00275266
0.00144158
0.000203514
5.37655e-06
1.62708e-08
1.14149e-08
1.43867e-08
1.53196e-08
7.03578e-06
9.37778e-06
9.12721e-06
8.872e-07
1.70724e-07
0.000230176
0.000415362
0.000123203
0.00726954
0.48972
0.586642
0.573289
1.63212
1.12891
0.238689
0.137457
0.0486693
0.00820794
1.4342e-05
2.22389e-08
1.81886e-07
1.88542e-08
3.05825e-08
1.71524e-06
6.18196e-07
2.93086e-07
6.26477e-06
7.51909e-05
0.000538301
0.000547235
0.0135314
0.64657
0.762438
0.549296
0.309542
1.6332
1.96184
2.003
1.80203
1.52041
1.02312
0.434
0.0965965
0.0266909
0.00581677
0.0032613
0.00112936
2.91152e-05
0.0077771
0.00963978
0.00757881
0.000638931
0.0048333
0.44274
0.659701
0.449547
0.114031
0.111095
1.28559
1.88174
2.47949
2.44025
2.44973
2.21913
1.58329
1.20085
0.841168
0.558949
0.417087
0.186574
0.0461288
0.00923305
0.00310536
0.00217746
0.0008933
0.163873
0.494474
0.407947
0.167681
0.101892
0.231521
1.02757
1.94315
2.36665
2.33676
2.23871
1.58611
1.58318
1.67331
1.59509
1.21527
0.884475
0.486287
0.042032
0.00358701
0.00232761
0.0113543
0.0257446
0.269306
0.469314
0.280406
0.498059
0.740388
0.878759
1.00013
1.29853
1.23043
1.2555
1.25769
1.86934
2.17099
2.15487
2.0459
1.74419
0.901938
0.617675
0.545618
0.217515
0.0829901
0.138217
0.381043
0.561683
0.666569
0.853223
0.98385
1.00147
1.00165
1.00014
0.998216
1.01776
1.37887
1.94032
2.52795
2.52132
1.801
0.994986
1.09661
1.14145
1.35314
0.936898
0.896535
0.839438
1.07556
0.964468
0.961852
0.996038
1.00005
1.00008
1.00034
1.00034
1.00065
1.00769
1.58621
2.31916
2.31241
1.4067
0.99981
1.02701
1.00016
1.00228
1.36371
1.59384
1.39832
1.27836
1.32343
1.12033
1.02579
0.999951
0.99989
1.0002
1.00024
1.1395
1.611
1.01166
1.06033
2.03229
2.30814
1.13952
1.00016
1.00016
1.00017
1.00016
0.999907
1.10168
1.26779
1.27538
1.13041
1.04661
1.01544
1.01089
1.00684
1.36611
1.79525
2.24352
2.63631
2.90377
1.02071
1.09169
2.02289
1.84488
1.00016
1.00017
1.00017
1.00016
0.999842
0.999368
0.999168
1.08318
1.23198
1.26452
1.38519
1.71404
2.10854
2.50163
2.8023
2.95847
2.99983
2.9999
2.99992
1.02072
1.02179
1.85973
2.146
1.00017
1.00017
1.00017
1.04271
1.36739
1.81132
2.13994
2.33122
2.48671
2.66254
2.82281
2.93983
2.99588
3
3
3
2.99999
3
3
1.00609
1
1.29866
2.52861
1.17377
1.00017
1.04917
2.01926
2.65675
2.9499
2.99754
2.99991
2.99987
2.99994
3
3
3
3
3
3
3
3
3
1
1
1.04468
2.33707
2.66784
2.46589
1.15705
1.81008
2.96946
3
3
3
3
3
3
3
3
3
3
3
3
3
3
1
1
1.00001
1.23403
2.71728
2.89735
1.85004
1.78166
2.86325
3
3
3
3
3
3
3
3
3
3
3
3
3
3
0.999998
0.999999
1.00001
1.00001
1.75984
2.89121
2.89735
2.44029
2.72393
3
3
3
3
3
3
3
3
3
3
3
3
3
3
0.999998
0.999996
1
1
0.999976
1.73353
2.02841
2.48675
2.99881
3
3
3
3
3
3
3
3
3
3
3
3
3
3
1.01477
1.00177
0.999918
0.99992
0.999914
0.999916
1.03591
1.83711
2.94908
3
3
3
3
3
3
3
3
3
3
3
3
3
3
1.31402
1.04393
0.999838
0.999794
1.00736
1.34305
2.11338
2.93276
2.99925
3
3
3
3
3
3
3
3
3
3
3
3
3
3
1.40602
1.09171
1.00038
1.16929
1.9701
2.83794
2.99966
2.99952
2.99999
3
3
2.99999
2.99999
3
3
3
3
3
3
3
3
3
3
1.39116
1.08478
1.44839
2.53958
3
3
2.9999
3
3
3
2.99999
2.99999
2.99999
3
3
3
3
3
3
3
3
3
3
1.08971
1.08303
2.43645
3
3
3
3
3
3
2.99999
2.99999
2.99999
3
3
3
3
3
3
3
3
3
3
3
1.15163
1.57406
2.72896
2.99999
3
3
3
3
2.99999
2.99999
2.99999
2.99999
3
3
3
3
3
3
3
3
3
3
3
2.00355
2.76119
2.87765
2.99959
3
3
3
3
2.99999
2.99999
2.99999
3
3
3
3
3
3
3
3
3
3
3
3
2.99997
2.99999
2.9879
2.99158
3
3
3
3
3
3
3
3
3
3
3
3
3
3
3
3
3
3
3
2.99999
3
2.99999
2.99139
3
3
3
3
3
3
3
3
3
3
3
3
3
3
3
3
3
3
3
3
3
2.99913
2.99677
3
3
3
3
3
3
3
3
3
3
3
3
3
3
3
3
3
3
3
2.99995
3
3
3
3
3
3
3
3
3
3
3
3
3
3
3
3
3
3
3
3
3
3
2.9999
3
3
3
3
3
3
3
3
3
3
3
3
3
3
3
3
3
3
3
3
3
3
2.9999
3
3
3
3
3
3
3
3
3
3
3
3
3
3
3
3
3
3
3
3
3
3
2.9999
2.99996
3
3
3
3
3
3
3
3
3
3
3
3
3
3
3
3
3
3
3
3
3
2.9999
2.99992
3
3
3
3
3
3
3
3
3
3
3
3
3
3
3
3
3
3
3
3
3
2.99994
2.99985
2.99998
3
3
3
3
3
3
3
3
3
3
3
3
3
3
3
3
3
3
3
3
2.99997
2.99985
2.99985
3
2.99999
3
3
3
3
3
3
3
3
3
3
3
3
3
3
3
3
3
3
3
2.99994
2.99991
2.99999
2.99999
3
3
3
3
3
3
3
3
3
3
3
3
3
3
3
3
3
3
3
3
3
2.99999
3
3
3
3
3
3
3
3
3
3
3
3
3
3
3
3
3
3
3
3
3
3
3
3
3
3
3
3
3
3
3
3
3
3
3
3
3
3
3
3
3
3
3
3
3
3
3
3
3
3
3
3
3
3
3
3
3
3
3
3
3
3
3
3
3
3
3
3
3
3
3
3
3
3
3
3
3
3
3
3
3
3
3
3
3
3
3
3
3
3
3
3
3
3
3
3
3
3
3
3
3
3
3
3
3
3
3
3
3
3
3
3
3
3
3
3
3
3
3
3
3
3
3
3
3
3
3
3
3
3
3
3
3
3
3
3
3
3
3
3
3
3
3
3
3
3
3
3
3
3
3
3
3
3
3
3
3
0.297487
0.658957
0.783164
0.923048
0.552758
0.52394
0.408634
0.49085
0.31498
0.210107
0.168536
0.23926
0.119105
0.231503
0.504129
0.603651
0.662866
1.49031
1.87062
1.89348
1.34356
2.02528
1.96213
1.95124
1.11045
1.34946
1.32467
1.16511
1.00038
1.17495
1.51749
1.72879
2.22545
2.58726
2.80145
2.9106
2.99884
2.99926
2.99985
3
2.99996
3
3
3
3
3
3
3
3
3
3
3
3
3
3
3
3
3
3
3
3
3
3
3
3
3
3
3
3
3
3
3
3
3
3
3
3
3
3
3
3
3
3
3
3
3
3
3
3
3
3
3
3
3
3
3
3
3
3
3
3
3
3
3
3
3
3
3
3
3
3
3
3
3
3
3
3
3
3
3
3
3
3
3
3
3
3
3
3
3
3
3
3
3
3
3
3
3
3
3
3
3
3
3
3
3
3
3
3
3
3
3
3
3
3
3
3
3
3
3
3
3
3
3
3
3
3
3
1.08961
0.527858
0.887854
1.07662
1.04449
1.07844
1.25262
1.25725
1.36317
1.20666
1.0371
0.941774
1.26317
1.09893
0.629753
0.820322
0.848222
0.85148
0.780396
0.539835
0.311223
0.537551
0.799949
0.93537
1.09759
1.24727
1.27337
1.27997
1.30561
1.39491
1.69941
1.86255
1.43512
1.08449
1.07559
1.07414
1.01619
1.00078
0.253975
0.286111
0.722029
1.52937
1.50561
1.21474
1.45886
1.96572
2.19725
2.41705
2.61007
2.67497
2.28626
1.4849
1.30649
1.87205
2.1376
2.01289
1.75447
0.589225
0.967942
1.63629
1.85915
1.88845
2.07287
2.70795
2.99049
2.99082
2.98549
2.94885
2.94672
2.64369
2.0886
2.59588
2.98398
2.98722
2.99007
2.95118
1.85794
1.90729
1.71196
1.45369
1.6167
2.72227
2.99636
2.99997
2.99998
2.99975
2.98017
2.96491
2.98574
2.96238
2.99534
2.99953
2.99941
2.99944
2.99944
1.55148
1.3334
1.33299
1.47055
2.52949
2.99921
2.99961
2.99982
2.99999
2.99999
2.99981
2.99723
2.99788
2.99877
2.99929
2.99855
2.99834
2.99895
2.99941
1.16276
1.59571
2.34295
2.99424
2.99939
2.99933
2.99931
2.99984
2.99999
2.99999
2.99998
2.99994
2.99994
2.99992
2.99886
2.99799
2.99804
2.9991
2.99973
2.1609
2.85032
2.9984
2.99961
2.99936
2.99914
2.99951
2.99999
2.99989
2.9996
2.99959
2.99964
2.99969
2.99948
2.99849
2.99873
2.99999
3
3
2.99504
3
2.9999
2.99923
2.99922
2.9996
3
3
2.99997
2.99971
2.99958
2.99963
2.99977
2.99945
2.99951
3
3
3
3
3
3
2.99997
2.99994
2.99997
2.99999
2.99998
2.99999
2.99999
2.99999
2.99997
2.99998
2.99999
3
3
3
3
2.99993
2.99997
3
2.99999
2.99999
2.99999
2.99999
2.99999
2.99991
2.99965
2.99965
2.99969
2.99985
2.99999
3
3
3
3
3
2.99973
2.99984
3
3
3
2.99998
2.99998
2.99998
2.99998
2.99995
2.99967
2.99948
2.99948
2.99956
2.99994
3
3
3
2.99997
2.99973
2.99987
3
3
3
3
3
2.99998
2.99998
2.99999
2.99999
3
2.99981
2.99964
2.99985
3
3
3
2.99992
2.99973
2.99999
3
3
3
3
3
3
2.99998
2.99998
2.99998
3
3
3
2.99999
2.99999
3
3
2.99992
2.99995
3
3
3
3
3
3
3
3
2.99998
2.99998
2.99998
3
3
3
3
3
3
3
3
3
3
3
3
3
3
3
3
3
2.99999
2.99999
3
3
3
3
3
3
3
3
3
3
3
3
3
3
3
3
3
3
3
3
3
3
3
3
3
3
3
3
3
3
3
3
3
3
3
3
3
3
3
3
3
3
3
3
3
3
3
3
3
3
3
3
3
3
3
3
3
3
3
3
3
3
3
3
2.99999
2.99999
3
3
3
3
3
3
3
3
3
3
3
3
3
3
3
3
3
2.99997
2.99998
3
3
3
3
3
3
3
3
3
3
3
3
3
3
3
3
2.99998
2.99997
3
3
3
3
3
3
3
3
3
3
3
3
3
3
3
3
3
2.99997
2.99997
3
3
3
3
3
3
3
3
3
3
3
3
3
3
3
3
3
2.99999
2.99999
3
3
3
3
3
3
3
3
3
3
3
3
3
3
3
3
3
3
3
3
3
3
3
3
3
3
3
3
3
3
3
3
3
3
3
3
3
3
3
3
3
3
3
3
3
3
3
3
3
3
3
3
3
3
3
3
3
3
3
3
3
3
3
3
3
3
3
3
3
3
3
3
3
3
3
3
3
3
3
3
3
3
3
3
3
3
3
3
3
3
3
3
3
3
3
3
3
3
3
3
3
3
3
3
3
3
3
3
3
3
3
3
3
3
3
3
3
3
3
3
3
3
3
3
3
3
3
3
3
3
3
3
3
3
3
3
3
3
3
3
3
3
3
3
3
3
3
3
3
3
3
3
3
3
3
3
3
3
3
3
3
3
3
3
3
3
3
3
3
3
3
3
3
3
3
3
3
3
3
3
3
3
3
3
3
3
3
3
3
3
3
3
3
3
3
3
3
3
3
3
3
3
3
3
3
3
3
3
3
3
3
3
3
3
3
3
3
3
3
3
3
3
3
3
3
3
3
3
3
3
3
3
3
3
3
3
3
3
3
3
3
3
3
3
3
3
3
3
3
3
3
3
3
3
3
3
3
3
3
3
3
3
3
3
3
3
3
3
3
3
3
3
3
3
3
3
3
3
3
3
3
3
3
3
3
3
3
3
3
3
3
3
3
3
3
3
3
3
3
3
3
3
3
3
3
3
3
3
3
3
3
3
3
3
3
3
3
3
3
3
3
3
3
3
3
3
3
3
3
3
3
3
3
3
3
3
3
3
3
3
3
3
3
3
3
3
3
3
3
3
3
3
3
3
3
3
3
3
3
3
3
3
)
;

boundaryField
{
    leftWall
    {
        type            calculated;
        value           nonuniform List<scalar> 
50
(
2
2
2
2
2
1.99735
1.05765
0.121138
0.163708
1.04736
1.63212
1.6332
1.28559
1.02757
1.00013
1.00014
1.00065
1.01166
1.02071
1.02072
1.00609
1
1
0.999998
0.999998
1.01477
1.31402
1.40602
1.39116
1.08971
1.15163
2.00355
2.99997
2.99999
3
2.99995
2.9999
2.9999
2.9999
2.9999
2.99994
2.99997
3
3
3
3
3
3
3
3
)
;
    }
    rightWall
    {
        type            calculated;
        value           nonuniform List<scalar> 
50
(
1.89986
1.90021
1.91431
1.9444
1.8278
1.31552
0.923879
0.85021
0.780396
1.00078
1.75447
2.95118
2.99944
2.99941
2.99973
3
3
2.99997
2.99984
2.99987
2.99999
3
3
3
3
3
2.99999
2.99998
3
3
3
3
3
3
3
3
3
3
3
3
3
3
3
3
3
3
3
3
3
3
)
;
    }
    lowerWall
    {
        type            calculated;
        value           nonuniform List<scalar> 
62
(
2
2
2
2
2
2
2
2
2
2
2
2
2
2
2
2
2
2
2
2
2
1.99995
1.99993
1.99993
1.99994
2
2
1.54192
0.15893
0.0197577
9.18461e-06
0.297487
0.658957
0.783164
0.923048
1.38635
1.24153
1.15128
1.10365
1.0713
1.00877
1.05432
1.06719
1.38635
1.37008
1.351
1.16813
1.15674
1.35393
1.75669
1.79155
1.83212
1.86159
1.8707
1.87588
1.88342
1.886
1.88069
1.88153
1.9035
1.92857
1.89986
)
;
    }
    atmosphere
    {
        type            calculated;
        value           nonuniform List<scalar> 
46
(
3
3
3
3
3
3
3
3
3
3
3
3
3
3
3
3
3
3
3
3
3
3
3
3
3
3
3
3
3
3
3
3
3
3
3
3
3
3
3
3
3
3
3
3
3
3
)
;
    }
    defaultFaces
    {
        type            empty;
    }
}


// ************************************************************************* //
