/*--------------------------------*- C++ -*----------------------------------*\
| =========                 |                                                 |
| \\      /  F ield         | OpenFOAM: The Open Source CFD Toolbox           |
|  \\    /   O peration     | Version:  2312                                  |
|   \\  /    A nd           | Website:  www.openfoam.com                      |
|    \\/     M anipulation  |                                                 |
\*---------------------------------------------------------------------------*/
FoamFile
{
    version     2.0;
    format      ascii;
    arch        "LSB;label=32;scalar=64";
    class       volScalarField;
    location    "1.2";
    object      alpha.air;
}
// * * * * * * * * * * * * * * * * * * * * * * * * * * * * * * * * * * * * * //

dimensions      [0 0 0 0 0 0 0];

internalField   nonuniform List<scalar> 
2268
(
1.04952e-12
4.0059e-13
1.4633e-13
5.39268e-14
2.43078e-14
1.39642e-14
1.04024e-14
9.67337e-15
1.34527e-14
2.81462e-14
6.17017e-14
1.19578e-13
1.92916e-13
2.46739e-13
2.69489e-13
4.44146e-13
1.82961e-12
7.014e-12
6.62975e-13
7.10894e-14
2.15228e-13
1.31299e-12
1.52112e-13
4.62887e-12
2.22337e-12
9.57514e-13
3.46702e-13
9.74725e-14
7.84826e-14
7.89671e-14
9.28942e-14
1.59402e-13
3.18187e-13
6.97127e-13
1.2734e-12
1.82304e-12
2.26674e-12
3.09183e-12
1.01926e-11
1.04563e-10
6.43881e-10
3.49242e-13
3.495e-13
3.91823e-12
4.49406e-11
9.09957e-12
1.2196e-11
8.28118e-12
7.75033e-12
2.43893e-12
9.41903e-13
4.55595e-13
4.32406e-13
5.30099e-13
7.41461e-13
1.41848e-12
2.71096e-12
4.00635e-12
5.26694e-12
8.55193e-12
2.32854e-11
9.88907e-11
6.42019e-10
2.37202e-08
1.48664e-07
6.53846e-15
2.48463e-21
-1.57657e-15
2.85322e-09
1.50348e-11
1.30811e-11
5.11519e-11
2.69365e-12
3.39236e-12
1.58797e-12
1.18156e-12
1.23696e-12
1.73689e-12
6.06019e-12
1.2915e-11
4.01396e-12
4.25105e-12
4.1128e-12
4.13163e-12
6.02027e-10
2.30531e-10
2.26585e-10
1.93868e-06
1.93433e-05
6.16852e-05
4.41717e-05
1.04388e-06
1.32837e-11
1.37699e-11
3.07362e-11
1.66418e-09
1.2855e-10
8.55476e-12
2.51701e-12
3.68434e-12
8.86395e-12
1.74385e-11
1.82227e-10
7.5724e-09
4.42042e-08
9.52087e-08
1.22006e-07
1.10345e-07
4.7583e-08
2.84996e-10
2.70536e-10
5.47158e-05
0.000593723
0.00209097
0.00417967
7.31511e-12
7.50708e-12
1.24268e-07
4.50501e-08
3.39416e-09
2.09927e-10
2.35053e-12
2.48204e-12
2.47175e-12
6.50389e-12
1.91486e-12
1.61421e-08
1.39248e-07
2.21575e-07
2.22532e-07
2.22531e-07
1.94279e-07
7.92536e-08
1.36154e-08
6.80455e-09
0.000248346
0.00296869
0.0100047
0.000214097
0.000103031
1.62663e-05
5.08828e-07
1.78949e-09
6.9979e-11
1.91306e-12
1.91595e-12
1.19818e-10
1.93245e-12
1.91688e-12
2.34066e-09
2.14173e-08
2.43454e-08
2.47456e-08
5.24678e-08
7.37483e-08
1.3679e-07
3.51457e-07
2.22705e-07
-6.21256e-25
-1.87318e-10
0.00435721
0.0263495
0.0020934
1.49568e-05
2.75086e-10
2.86783e-10
5.13136e-10
2.2712e-09
4.0142e-09
4.68594e-09
2.53628e-09
2.92264e-11
1.92067e-08
3.67091e-08
3.60436e-08
1.94735e-08
1.36999e-08
1.29381e-08
1.29321e-08
1.61322e-06
1.38057e-06
7.95652e-07
2.35655e-07
2.31149e-07
0.0138862
0.0083318
0.00274119
0.00249321
0.00246299
0.00233352
0.000380326
1.06386e-06
1.06416e-06
0.000277617
0.00183396
0.00358548
0.00610987
0.00735522
0.0058026
0.00561959
0.00562287
0.00514881
0.00562357
0.0138755
0.0309649
0.00275885
0.0030284
0.0110304
0.0101954
0.00123221
1.06416e-06
1.06386e-06
1.06416e-06
1.06386e-06
0.00376879
0.0234988
0.0213806
0.0230917
0.0171143
0.0194464
0.0157018
0.00616414
0.105792
0.132225
0.0333705
0.0173839
0.0248476
0.00877169
0.00285177
0.00477479
0.024942
0.0477412
0.0623239
0.066299
0.0325496
0.0196983
0.0356407
0.052251
0.0539949
0.0375882
0.0130197
0.132163
0.177904
0.148995
0.033522
0.0148887
0.0382999
0.151366
0.192658
0.210044
0.234319
0.1792
0.0943649
0.00286755
0.00344694
0.0248787
0.0540163
0.0539987
0.0513103
0.0281268
0.14722
0.178004
0.0892264
0.033485
0.064903
0.268941
0.278306
0.278267
0.278296
0.235021
0.0573002
0.00810624
0.00285128
0.00302787
0.00635016
0.0118886
0.0191525
0.027601
0.0362072
0.127385
0.145028
0.0686469
0.0364527
0.219723
0.277004
0.278254
0.277347
0.127384
0.0281453
0.00129017
0.00129664
0.00281911
0.00391329
0.00391607
0.0020069
0.00104428
0.00239895
0.0363436
0.106481
0.140808
0.0259114
0.0483024
0.117334
0.11067
0.212845
0.235136
0.0620662
0.0505354
0.0115262
0.0013001
0.00160764
0.00179322
0.00180372
0.00207268
0.0010456
0.00159728
0.00631686
0.104657
0.086868
0.0149297
0.014824
0.00635059
0.0312248
0.123983
0.177838
0.198848
0.141254
0.0563477
0.0156348
0.00850301
0.010725
3.14631e-06
3.98706e-06
7.37149e-06
0.000165565
0.00141462
0.0545693
0.00647924
0.000115262
6.55541e-05
1.62622e-05
6.21435e-07
2.96744e-09
2.36362e-09
3.60662e-10
1.05713e-08
7.89204e-08
9.42423e-08
1.69889e-07
1.40197e-07
4.9835e-08
1.97135e-08
1.30756e-08
1.69322e-08
2.1483e-06
6.48042e-07
6.46399e-07
0.0108164
0.00283655
0.295256
0.0208512
0.00102856
0.000917543
0.000480527
6.78365e-05
1.78662e-06
3.60118e-10
3.59279e-10
6.91072e-10
6.54343e-10
2.34246e-06
3.12406e-06
3.04121e-06
2.95601e-07
5.6825e-08
1.314e-08
2.85689e-07
8.68258e-08
0.00242152
0.0843846
0.0921
0.0889339
0.318551
0.314403
0.0793081
0.045812
0.0162231
0.00273598
4.78024e-06
1.21714e-09
5.69439e-08
1.10176e-09
6.15385e-09
5.69207e-07
2.02927e-07
9.52449e-08
2.0466e-06
2.50403e-05
0.000179433
0.000178497
0.0021076
0.133782
0.14551
0.079024
0.0300148
0.317236
0.481581
0.625856
0.599162
0.504981
0.315214
0.10508
0.0042668
5.92314e-08
0.000349834
0.000896432
0.000373045
9.70485e-06
0.00259237
0.00313981
0.00243301
0.000212977
0.000765968
0.102443
0.152787
0.0997672
0.0057368
0.00803503
0.143407
0.441578
0.739842
0.740237
0.740237
0.612734
0.309563
0.187044
0.106736
0.0491807
0.0599653
0.0353538
0.00280811
0.000526457
0.00103497
0.000725817
0.00022022
0.0309811
0.11571
0.0940709
0.0178803
0.000442076
0.000399927
0.0141714
0.473803
0.683454
0.668381
0.619356
0.293055
0.291578
0.336641
0.297531
0.166824
0.134824
0.123207
0.000273176
0.000265516
0.000248126
0.000238221
0.000228041
0.0646239
0.115846
0.0179623
0.000161238
0.00101519
0.00415062
0.000103023
0.151498
0.115502
0.12776
0.128835
0.434719
0.585643
0.578282
0.539153
0.426186
0.0850475
0.105761
0.181649
0.0722805
0.0262827
0.0352048
0.0931029
0.0950199
0.0254058
7.66395e-05
0.000147313
0.000737089
0.000820314
0.000105685
0.000107285
0.00890963
0.189427
0.470187
0.764352
0.762316
0.404141
0.00138383
0.0508766
0.0734322
0.299022
0.305595
0.296781
0.277669
0.272053
0.0872168
0.0136943
7.66454e-05
7.66234e-05
8.3474e-05
0.000170757
0.00017047
0.000327706
0.00384056
0.293087
0.659591
0.656328
0.203529
7.82976e-05
0.0136255
8.25829e-05
0.00106413
0.180626
0.30564
0.305611
0.305595
0.269353
0.0745117
0.0129086
0.00010559
7.66289e-05
7.66454e-05
7.66289e-05
0.0697514
0.305507
0.00583139
0.0301594
0.516133
0.654084
0.0697789
8.11992e-05
8.08028e-05
8.21517e-05
8.19443e-05
8.69244e-05
0.0503962
0.132576
0.136951
0.0651971
0.0232286
0.00766702
0.00540905
0.00342767
0.183059
0.39755
0.621687
0.818101
0.951796
0.010357
0.0458413
0.511431
0.422444
8.21885e-05
8.22313e-05
8.09458e-05
8.11155e-05
8.17302e-05
8.16992e-05
8.19937e-05
0.0417996
0.115895
0.132113
0.192407
0.356828
0.554118
0.750808
0.901147
0.979188
0.999839
0.999915
0.99993
0.0103596
0.0108958
0.429856
0.572996
8.44594e-05
8.36991e-05
8.13301e-05
0.0213424
0.183766
0.405868
0.570206
0.665529
0.743195
0.831113
0.911277
0.969871
0.997908
0.999995
0.999999
0.999996
0.999991
0.999999
1
0.0030478
2.35851e-06
0.149324
0.764298
0.086887
8.47882e-05
0.0245853
0.509627
0.828379
0.974954
0.998761
0.999911
0.999872
0.999939
0.999996
1
1
1
1
1
1
1
1
2.31855e-06
2.39276e-06
0.0223389
0.668522
0.833916
0.732946
0.0785234
0.405038
0.98473
0.999998
0.999996
0.999996
1
1
1
1
1
1
1
1
1
1
1
2.0733e-06
2.47741e-06
2.72897e-06
0.11701
0.858633
0.948674
0.425021
0.390829
0.931624
0.999999
0.999999
1
1
1
1
1
1
1
1
1
1
1
1
5.03062e-07
8.52528e-07
2.98434e-06
2.41463e-06
0.379913
0.9456
0.948674
0.720143
0.861963
0.999999
1
1
1
1
1
1
1
1
1
1
1
1
1
4.42883e-07
4.37712e-07
2.15425e-06
1.44102e-06
-2.39205e-11
0.366762
0.514203
0.743369
0.999405
0.999999
1
1
1
1
1
1
1
1
1
1
1
1
1
0.00740642
0.000918596
7.4342e-09
-4.36858e-24
-2.24979e-18
2.92218e-07
0.018015
0.418634
0.974574
0.999999
1
1
1
1
1
1
1
1
1
1
1
1
1
0.157041
0.0220055
8.26019e-06
3.42391e-07
0.00381271
0.171685
0.556854
0.966545
0.999658
1
1
1
1
1
1
1
1
1
1
1
1
1
1
0.20301
0.0458546
0.000191187
0.0846465
0.48505
0.918977
0.999888
0.999839
0.999996
1
1
0.999998
0.999998
1
1
1
1
1
1
1
1
1
1
0.195582
0.0423903
0.224194
0.76979
1
0.999999
0.999967
0.999999
0.999999
1
0.999997
0.999996
0.999997
1
1
1
1
1
1
1
1
1
1
0.0448577
0.0415154
0.718229
0.999999
1
1
1
1
0.999999
0.999996
0.999996
0.999996
0.999999
1
1
1
1
1
1
1
1
1
1
0.0758176
0.287042
0.864496
0.999996
1
1
1
1
0.999996
0.999996
0.999996
0.999998
1
1
1
1
1
1
1
1
1
1
1
0.501786
0.880608
0.938841
0.999798
1
1
1
1
0.999998
0.999997
0.999998
1
1
1
1
1
1
1
1
1
1
1
1
0.99999
0.999997
0.993963
0.995794
1
1
1
1
1
1
1
1
1
1
1
1
1
1
1
1
1
1
1
0.999998
0.999999
0.999997
0.995702
1
1
1
1
1
1
1
1
1
1
1
1
1
1
1
1
1
1
1
0.999999
0.999998
0.999567
0.998386
1
1
1
1
1
1
0.999999
1
1
1
1
1
1
1
1
1
1
1
1
0.999974
0.999999
0.999999
1
1
1
1
1
1
1
1
1
1
1
1
1
1
1
1
1
1
1
1
0.999952
0.999999
1
1
1
1
1
1
1
1
1
1
1
1
1
1
1
1
1
1
1
1
1
0.999951
0.999999
1
1
1
1
1
1
1
1
1
1
1
1
1
1
1
1
1
1
1
1
1
0.999951
0.999981
1
1
1
1
1
1
1
1
1
1
1
1
1
1
1
1
1
1
1
1
1
0.999951
0.99996
1
1
1
1
1
1
1
1
1
1
1
1
1
1
1
1
1
1
1
1
1
0.99997
0.999924
0.999992
1
0.999998
1
1
1
1
1
1
1
1
1
1
1
1
1
1
1
1
1
1
0.999987
0.999924
0.999928
1
0.999994
0.999999
1
1
1
1
1
1
1
1
1
1
1
1
1
1
1
1
1
0.999999
0.999971
0.999958
0.999993
0.999994
1
1
1
1
1
1
1
1
1
1
1
1
1
1
1
1
1
1
1
1
1
0.999997
0.999999
1
1
1
1
1
1
1
1
1
1
1
1
1
1
1
1
1
1
1
1
1
1
1
1
1
1
1
1
1
1
1
1
1
1
1
1
1
1
1
1
1
1
1
1
1
1
1
1
1
1
1
1
1
1
1
1
1
1
1
1
1
1
1
1
1
1
1
1
1
1
1
1
1
1
1
1
1
1
1
1
1
1
1
1
1
1
1
1
1
1
1
1
1
1
1
1
1
1
1
1
1
1
1
1
1
1
1
1
1
1
1
1
1
1
1
1
1
1
1
1
1
1
1
1
1
1
1
1
1
1
1
1
1
1
1
1
1
1
1
1
1
1
1
1
1
1
1
1
1
1
1
1
1
1
1
1
0.0198038
0.0685132
0.0989293
0.12433
0.0741189
0.073967
0.0477492
0.0812871
0.067413
0.0300951
0.0105361
0.00958233
0.00861047
0.00838435
0.0428212
0.0695601
0.0933027
0.352212
0.495536
0.502123
0.181028
0.506918
0.506167
0.507357
0.0551951
0.173465
0.163475
0.0889127
0.000190245
0.0868316
0.257335
0.362685
0.612043
0.792135
0.899235
0.954543
0.99896
0.999262
0.999851
1
0.999959
1
1
0.999999
0.999999
0.999999
0.999999
0.999999
1
1
1
1
1
1
1
1
1
1
1
1
1
1
1
1
1
1
1
1
1
1
1
1
1
1
1
1
1
1
1
1
1
1
1
1
1
1
1
1
1
1
1
1
1
1
1
1
1
1
1
1
1
1
1
1
1
1
1
1
1
1
1
1
1
1
1
1
1
1
1
1
1
1
1
1
1
1
1
1
1
1
1
1
1
1
1
1
1
1
1
1
1
1
1
1
1
1
1
1
1
1
1
1
1
1
1
1
1
1
1
1
1
1
1
1
1
1
1
1
0.122465
0.0398991
0.0220059
0.0126179
0.00638786
0.0254247
0.120207
0.129503
0.198737
0.205898
0.205388
0.169025
0.232585
0.152024
0.00446746
0.00436793
0.000360324
0.000297134
0.0128263
0.0969526
0.0229513
0.0222792
0.0411721
0.0290931
0.0722964
0.117008
0.129988
0.135328
0.148127
0.192264
0.342432
0.423225
0.216006
0.0414804
0.0324891
0.0293188
0.0111713
0.0646071
0.0169969
0.0355909
0.184378
0.440682
0.321144
0.11204
0.229498
0.475207
0.590575
0.707134
0.805038
0.834771
0.63652
0.241266
0.149804
0.426387
0.559164
0.496805
0.370842
0.0747426
0.260375
0.497051
0.515368
0.446009
0.53565
0.849209
0.991744
0.991831
0.990196
0.978766
0.976559
0.819616
0.54309
0.791651
0.984021
0.987259
0.990093
0.97165
0.490954
0.49258
0.384295
0.238822
0.315657
0.863639
0.99757
0.999987
0.999991
0.999914
0.99339
0.98809
0.992187
0.979315
0.995401
0.999675
0.999682
0.99969
0.999698
0.309141
0.18065
0.182429
0.240592
0.763549
0.999606
0.999806
0.999909
0.999996
0.999996
0.999937
0.998983
0.998665
0.998768
0.99953
0.999275
0.999171
0.999473
0.999705
0.0876297
0.30203
0.669264
0.994287
0.999428
0.999638
0.999664
0.999925
0.999996
0.999996
0.99999
0.999948
0.999943
0.999939
0.999431
0.998996
0.99902
0.999549
0.999866
0.579182
0.923406
0.998439
0.999682
0.999681
0.999568
0.999757
0.999998
0.999943
0.9998
0.999794
0.999802
0.999823
0.999735
0.999243
0.999365
0.999994
1
1
0.997275
0.999999
0.99995
0.999613
0.99961
0.999799
0.999999
0.999999
0.999986
0.999853
0.999789
0.999813
0.999882
0.999727
0.999757
1
1
1
1
1
0.999999
0.999985
0.999969
0.999985
0.999994
0.999992
0.999993
0.999994
0.999994
0.999984
0.999988
0.999997
1
1
1
1
0.999966
0.999983
0.999998
0.999996
0.999996
0.999996
0.999996
0.999996
0.999957
0.999826
0.999827
0.999846
0.999926
0.999995
1
1
1
1
1
0.999865
0.99992
0.999999
1
1
0.999993
0.99999
0.999991
0.99999
0.999974
0.999836
0.999741
0.999741
0.999782
0.999971
1
1
1
0.999984
0.999865
0.999933
1
1
1
1
0.999999
0.999989
0.999989
0.999994
0.999996
0.999999
0.999905
0.99982
0.999924
1
1
1
0.999958
0.999865
0.999995
1
1
1
1
1
1
0.999991
0.999989
0.99999
0.999999
1
1
0.999997
0.999996
0.999999
1
0.99996
0.999974
0.999998
1
1
1
1
1
1
1
0.999989
0.999988
0.999991
1
1
1
1
1
1
1
1
1
1
1
1
1
1
1
1
0.999998
0.999994
0.999997
1
1
1
1
1
1
1
1
1
1
1
1
1
1
1
1
1
1
1
1
1
1
1
1
1
1
1
1
1
1
1
1
1
1
1
1
1
1
1
1
1
1
1
1
1
1
1
1
1
1
1
1
1
1
1
1
1
1
1
1
1
1
1
1
0.999994
0.999995
1
1
1
1
1
1
1
1
1
1
1
1
1
1
1
1
1
0.999987
0.999991
1
1
1
1
1
1
1
1
1
1
1
1
1
1
1
1
0.999992
0.999987
0.999998
1
1
1
1
1
1
1
1
1
1
1
1
1
1
1
1
0.999987
0.999987
0.999999
1
1
1
1
1
1
1
1
1
1
1
1
1
1
1
1
0.999995
0.999997
1
1
1
1
1
1
1
1
1
1
1
1
1
1
1
1
1
1
1
1
1
1
1
1
1
1
1
1
1
1
1
1
1
1
1
1
1
1
1
1
1
1
1
1
1
1
1
1
1
1
1
1
1
1
1
1
1
1
1
1
1
1
1
1
1
1
1
1
1
1
1
1
1
1
1
1
1
1
1
1
1
1
1
1
1
1
1
1
1
1
1
1
1
1
1
1
1
1
1
1
1
1
1
1
1
1
1
1
1
1
1
1
1
1
1
1
1
1
1
1
1
1
1
1
1
1
1
1
1
1
1
1
1
1
1
1
1
1
1
1
1
1
1
1
1
1
1
1
1
1
1
1
1
1
1
1
1
1
1
1
1
1
1
1
1
1
1
1
1
1
1
1
1
1
1
1
1
1
1
1
1
1
1
1
1
1
1
1
1
1
1
1
1
1
1
1
1
1
1
1
1
1
1
1
1
1
1
1
1
1
1
1
1
1
1
1
1
1
1
1
1
1
1
1
1
1
1
1
1
1
1
1
1
1
1
1
1
1
1
1
1
1
1
1
1
1
1
1
1
1
1
1
1
1
1
1
1
1
1
1
1
1
1
1
1
1
1
1
1
1
1
1
1
1
1
1
1
1
1
1
1
1
1
1
1
1
1
1
1
1
1
1
1
1
1
1
1
1
1
1
1
1
1
1
1
1
1
1
1
1
1
1
1
1
1
1
1
1
1
1
1
1
1
1
1
1
1
1
1
1
1
1
1
1
1
1
1
1
1
1
1
1
1
1
1
1
1
1
1
1
1
1
1
1
1
1
1
1
1
1
1
1
)
;

boundaryField
{
    leftWall
    {
        type            alphaContactAngle;
        thetaProperties 
6
(
(galistan air) 90 0 0 0
(oil galistan) 90 0 0 0
(water oil) 90 0 0 0
(water air) 90 0 0 0
(oil air) 90 0 0 0
(water galistan) 90 0 0 0
);
        value           nonuniform List<scalar> 
50
(
1.04952e-12
4.62887e-12
1.2196e-11
1.50348e-11
1.32837e-11
7.31511e-12
0.000214097
0.0263495
0.0545693
0.295256
0.318551
0.317236
0.143407
0.0141714
0.000103023
0.000105685
0.000327706
0.00583139
0.010357
0.0103596
0.0030478
2.31855e-06
2.0733e-06
5.03062e-07
4.42883e-07
0.00740642
0.157041
0.20301
0.195582
0.0448577
0.0758176
0.501786
0.99999
0.999998
0.999999
0.999974
0.999952
0.999951
0.999951
0.999951
0.99997
0.999987
0.999999
1
1
1
1
1
1
1
)
;
    }
    rightWall
    {
        type            alphaContactAngle;
        thetaProperties 
6
(
(galistan air) 90 0 0 0
(oil galistan) 90 0 0 0
(water oil) 90 0 0 0
(water air) 90 0 0 0
(oil air) 90 0 0 0
(water galistan) 90 0 0 0
);
        value           nonuniform List<scalar> 
50
(
0.00562357
0.00616414
0.0130197
0.0281268
0.0362072
0.0363436
0.00631686
0.00141462
0.0128263
0.0646071
0.370842
0.97165
0.999698
0.999705
0.999866
1
1
0.999983
0.99992
0.999933
0.999995
0.999998
1
1
1
1
0.999995
0.999991
0.999998
0.999999
1
1
1
1
1
1
1
1
1
1
1
1
1
1
1
1
1
1
1
1
)
;
    }
    lowerWall
    {
        type            alphaContactAngle;
        thetaProperties 
6
(
(galistan air) 90 0 0 0
(oil galistan) 90 0 0 0
(water oil) 90 0 0 0
(water air) 90 0 0 0
(oil air) 90 0 0 0
(water galistan) 90 0 0 0
);
        value           nonuniform List<scalar> 
62
(
1.04952e-12
4.0059e-13
1.4633e-13
5.39268e-14
2.43078e-14
1.39642e-14
1.04024e-14
9.67337e-15
1.34527e-14
2.81462e-14
6.17017e-14
1.19578e-13
1.92916e-13
2.46739e-13
2.69489e-13
4.44146e-13
1.82961e-12
7.014e-12
6.62975e-13
7.10894e-14
2.15228e-13
1.31299e-12
1.52112e-13
1.52112e-13
9.09957e-12
2.85322e-09
1.04388e-06
0.00417967
0.0100047
0.00435721
2.31149e-07
0.0198038
0.0685132
0.0989293
0.12433
0.0138862
0.0138755
0.105792
0.132163
0.14722
0.127385
0.106481
0.104657
0.0138862
0.0083318
0.00274119
0.00249321
0.00246299
0.00233352
0.000380326
1.06386e-06
1.06416e-06
0.000277617
0.00183396
0.00358548
0.00610987
0.00735522
0.0058026
0.00561959
0.00562287
0.00514881
0.00562357
)
;
    }
    atmosphere
    {
        type            inletOutlet;
        inletValue      uniform 1;
        value           nonuniform List<scalar> 
46
(
1
1
1
1
1
1
1
1
1
1
1
1
1
1
1
1
1
1
1
1
1
1
1
1
0.999999
1
1
1
1
1
1
1
1
1
1
1
1
1
1
1
1
1
1
1
1
1
)
;
    }
    defaultFaces
    {
        type            empty;
    }
}


// ************************************************************************* //
