/*--------------------------------*- C++ -*----------------------------------*\
| =========                 |                                                 |
| \\      /  F ield         | OpenFOAM: The Open Source CFD Toolbox           |
|  \\    /   O peration     | Version:  2312                                  |
|   \\  /    A nd           | Website:  www.openfoam.com                      |
|    \\/     M anipulation  |                                                 |
\*---------------------------------------------------------------------------*/
FoamFile
{
    version     2.0;
    format      ascii;
    arch        "LSB;label=32;scalar=64";
    class       volScalarField;
    location    "1.2";
    object      alpha.water;
}
// * * * * * * * * * * * * * * * * * * * * * * * * * * * * * * * * * * * * * //

dimensions      [0 0 0 0 0 0 0];

internalField   nonuniform List<scalar> 
2268
(
3.36515e-11
2.92536e-11
2.66031e-11
2.46016e-11
2.31571e-11
2.20844e-11
2.13195e-11
2.00859e-11
1.87281e-11
1.85999e-11
1.9817e-11
2.24606e-11
2.6978e-11
3.38715e-11
4.59331e-11
6.74331e-11
1.01203e-10
1.57006e-10
2.32925e-10
3.07353e-10
3.72661e-10
3.72694e-10
4.71682e-10
1.0712e-10
4.20031e-11
2.83499e-11
2.76416e-11
3.03565e-11
3.30888e-11
3.55099e-11
3.6912e-11
3.83488e-11
3.99247e-11
4.4405e-11
5.12069e-11
6.11215e-11
7.7086e-11
1.07369e-10
1.667e-10
2.77977e-10
4.65022e-10
8.25914e-10
1.52475e-09
2.82658e-09
3.70199e-09
1.87252e-09
1.01577e-09
3.55559e-10
1.01808e-10
3.9365e-11
3.33286e-11
3.73626e-11
4.35247e-11
4.91022e-11
5.21684e-11
5.3838e-11
5.47673e-11
5.71222e-11
7.38886e-11
1.02011e-10
1.37481e-10
1.87088e-10
2.61535e-10
3.63306e-10
8.17588e-10
1.62157e-09
1.42553e-08
4.42395e-08
2.26799e-08
2.41551e-09
1.33797e-09
5.10278e-10
1.17879e-10
5.14932e-11
5.01242e-11
5.54371e-11
5.89709e-11
5.3282e-11
4.76233e-11
1.14862e-11
8.14148e-12
4.73991e-12
-2.09646e-13
-8.50783e-20
-5.33153e-14
-9.38046e-15
-1.14257e-20
-3.73013e-20
3.34979e-20
3.60481e-20
9.1275e-20
-2.8982e-11
2.32673e-09
2.78063e-09
1.99856e-09
7.42802e-10
1.77647e-10
5.56387e-11
3.52403e-11
3.31195e-11
2.11844e-11
5.62352e-12
9.03535e-13
7.56698e-13
0.0156508
0.0872378
0.149414
0.196197
0.231899
0.257837
0.268304
0.258645
0.239785
0.232392
0.228598
0.00132581
1.2083e-09
1.31779e-09
1.36298e-09
5.01479e-10
9.52345e-11
1.92807e-11
8.62248e-12
3.89811e-14
8.33888e-15
0.0812684
0.348778
0.649035
0.804213
0.88446
0.92608
0.950145
0.965121
0.97043
0.965004
0.950653
0.932535
0.918766
0.471281
0.182435
0.0140304
1.37462e-09
7.16813e-09
5.5253e-12
5.62793e-12
8.53837e-13
0.00423787
0.243713
0.722406
0.96697
0.999969
0.999977
0.99998
0.999988
1
1
0.999994
0.999923
0.999914
0.999991
0.988957
0.952606
0.849358
0.476182
0.125894
0.0130113
0.000665198
5.58283e-12
0.0737259
0.477607
0.92134
0.999997
1
1
1
1
1
1
1
0.999997
0.999998
0.999999
0.999999
0.999991
0.0153448
0.0205036
0.00560943
0.00363756
0.0149647
0.0635474
0.0887805
0.0837238
0.0640604
0.0494697
0.0456876
0.0439784
0.0414663
0.0408025
0.0414624
0.041441
0.0414194
0.028917
0.0156521
0.0279745
0.0345058
0.00302926
0.00314722
0.0151033
0.258125
0.45693
0.462751
0.203393
0.0333846
0.03107
0.0340902
0.0305791
0.0470231
0.051269
0.0350763
0.0196198
0.020124
0.0156597
0.118852
0.105771
0.0338931
0.00416614
0.390384
0.690464
0.690464
0.588776
0.122038
0.00148024
0.00147723
0.00147722
0.00605018
0.0255079
0.0512625
0.0442785
0.0195009
0.0187315
0.015004
0.171794
0.387573
0.346552
0.45
0.680594
0.621814
0.391076
0.115126
0.0460387
0.0466967
0.0612865
0.107323
0.260986
0.359476
0.383149
0.286578
0.143954
0.0506605
0.0150007
0.234164
0.707664
0.753412
0.7528
0.535857
0.227626
0.15124
0.246256
0.417955
0.444315
0.405262
0.413305
0.473694
0.767579
0.845127
0.73381
0.516088
0.262673
0.0773528
0.25776
0.724888
0.778063
0.715461
0.270552
0.0176446
0.147185
0.62395
0.814766
0.880151
0.76277
0.664733
0.840573
0.880327
0.880221
0.880278
0.850456
0.596391
0.247928
0.179697
0.628934
0.777788
0.5946
0.0768604
0.0144098
0.0468275
0.539415
0.880151
0.880192
0.880275
0.880293
0.88034
0.880383
0.88046
0.880382
0.880336
0.799152
0.238605
0.170627
0.320444
0.704937
0.358073
0.0198898
0.0141847
0.0127226
0.0933667
0.621782
0.773191
0.858244
0.879108
0.79345
0.77118
0.873918
0.807071
0.758411
0.602349
0.258645
0.945431
0.992646
0.959835
0.816445
0.635831
0.578732
0.640493
0.841569
0.988592
1
1
1
1
1
1
1
0.999994
0.999948
0.999953
0.999994
0.999999
0.979702
0.997155
0.543152
0.97724
0.998968
0.999082
0.999519
0.999932
0.999998
1
1
1
1
0.999998
0.999997
0.999997
1
1
0.99977
0.999585
0.999877
0.997574
0.686561
0.607969
0.611409
0.00497612
0.499898
0.919963
0.954177
0.983777
0.997264
0.999995
1
1
1
1
0.999999
1
1
0.999998
0.999975
0.999821
0.99981
0.990684
0.628151
0.54242
0.622977
0.754449
0.00127573
0.00132347
0.24871
0.396291
0.489547
0.607306
0.776161
0.911937
0.973309
0.994883
0.998532
0.999617
0.99999
0.997408
0.99664
0.997287
0.999787
0.996699
0.769917
0.659593
0.763842
0.90396
0.906455
0.00122117
0.00141295
0.000199024
0.0402207
0.0307409
0.00634131
0.0358462
0.173247
0.372313
0.539416
0.702845
0.884134
0.959488
0.991821
0.998965
0.999274
0.999663
0.905029
0.746933
0.787696
0.871217
0.899425
0.769358
0.000775368
0.00445959
0.00025962
-2.56041e-08
1.13455e-09
1.11807e-09
2.80345e-09
2.23768e-10
-4.73971e-08
0.118404
0.385199
0.760136
0.958515
0.996944
0.998169
0.989167
0.977867
0.867783
0.770415
0.758291
0.502266
0.261644
0.129599
7.63126e-05
0.004465
0.000575146
2.28824e-05
1.32249e-08
0.000134113
0.000335464
0.00173915
0.0324456
0.108201
0.268161
0.593847
0.817681
0.927047
0.971247
0.934973
0.808298
0.630375
0.384509
0.146934
0.0164449
2.64646e-06
2.6362e-06
7.23655e-05
0.00199934
7.34898e-05
2.17635e-05
8.57612e-05
0.000783815
0.00333063
0.00729712
0.00779249
0.00514679
0.00541614
0.246416
0.677216
0.699798
0.718791
0.471364
0.2107
0.0655363
0.00411471
9.95968e-05
8.97508e-05
2.67427e-06
2.68181e-06
3.37044e-06
7.62593e-09
8.4867e-09
5.51452e-05
0.000248097
0.000357555
0.000347383
0.000240239
5.09002e-06
3.8333e-06
1.91946e-05
0.0207048
0.216164
0.33609
0.216064
0.0291111
2.47864e-05
0.000260647
0.000286759
2.99388e-05
2.20286e-05
1.23781e-05
1.56711e-05
3.22359e-08
3.86407e-08
7.0126e-06
4.63004e-05
3.63535e-05
2.79571e-06
9.88293e-07
1.08356e-06
2.49123e-06
0.000372958
0.00116474
0.000376839
1.49021e-07
0.000441126
1.55549e-07
1.53454e-07
2.51975e-05
4.77139e-05
3.35249e-05
6.44152e-06
1.60929e-05
1.70729e-05
1.57424e-05
5.35456e-07
1.15604e-06
8.08491e-06
2.10566e-05
2.51393e-06
1.98865e-07
7.42523e-07
2.70233e-05
0.00039175
0.000903361
0.00117207
0.000622615
1.5466e-07
9.55638e-06
1.94026e-05
1.33748e-05
1.36891e-06
1.41078e-08
1.4218e-08
1.03995e-06
6.90492e-06
9.46447e-06
3.57775e-06
1.67142e-06
1.6707e-06
1.19579e-06
3.14906e-06
1.77015e-07
1.05633e-07
8.61647e-08
9.36739e-08
0.000173578
0.000435099
0.000505538
7.39162e-05
1.43313e-07
3.6146e-06
5.71277e-06
3.31867e-07
1.1117e-08
1.71287e-08
2.77616e-08
3.72858e-09
2.72382e-09
1.24456e-08
2.41616e-09
1.66125e-06
1.62441e-06
2.71115e-08
2.56315e-08
3.14771e-08
5.944e-09
5.96054e-09
5.95525e-07
7.7032e-06
1.24296e-05
4.35391e-08
4.02479e-08
2.04514e-07
1.77725e-07
1.31693e-08
1.27137e-08
1.10768e-08
2.46164e-08
2.96774e-08
2.19486e-08
6.93871e-09
2.58207e-09
2.42721e-09
1.16048e-06
1.09298e-06
2.69043e-08
3.58351e-08
3.0058e-08
1.44755e-08
6.15323e-09
4.33993e-08
9.44832e-09
1.02413e-08
9.94176e-08
5.92996e-08
9.18115e-08
4.43289e-08
1.43898e-08
1.45118e-08
1.03873e-08
1.00728e-08
9.79543e-09
7.23224e-09
5.02511e-09
2.20274e-09
1.7562e-09
1.38544e-06
9.80987e-07
4.21251e-08
1.77965e-08
1.35373e-08
1.06588e-08
2.32757e-09
1.89469e-08
4.76271e-08
1.07866e-08
1.06605e-07
5.55127e-08
6.70131e-08
4.30881e-08
2.1595e-08
1.66927e-08
1.07626e-08
6.67721e-09
3.65333e-09
2.0331e-09
1.61374e-09
1.12906e-09
8.58595e-10
2.96043e-06
2.56136e-06
4.0708e-07
2.44991e-07
1.67257e-06
1.0358e-07
4.41354e-12
1.59526e-14
2.09017e-12
4.27747e-08
5.18351e-08
1.54267e-08
3.94962e-08
2.34947e-08
2.10729e-08
1.5084e-08
9.01102e-09
4.70868e-09
2.45119e-09
1.17996e-09
7.66497e-10
4.31683e-10
3.32104e-10
3.28734e-06
5.21644e-06
1.29371e-06
1.94839e-06
2.37809e-05
1.58181e-06
6.47394e-12
5.54057e-08
1.60134e-06
2.17246e-07
1.65079e-08
8.42095e-09
1.97356e-08
5.97289e-08
2.78688e-08
1.54402e-08
6.74504e-09
3.2168e-09
1.63371e-09
6.41267e-10
3.6123e-10
1.82229e-10
1.16662e-10
3.95051e-05
6.99373e-05
8.1669e-05
7.98325e-05
8.6264e-05
8.53386e-05
0.000118465
0.00016112
7.27411e-05
5.37327e-10
6.30339e-09
2.39332e-09
4.10356e-09
8.62668e-08
3.80695e-08
1.54102e-08
5.03229e-09
2.12853e-09
9.75455e-10
3.67359e-10
1.73003e-10
5.946e-11
3.78365e-11
5.81824e-05
7.62849e-05
0.000178032
0.000206893
0.000262635
0.000320108
0.000324044
0.000324374
6.82495e-05
5.5638e-10
2.25062e-09
1.88056e-09
4.48206e-08
2.18093e-07
6.67769e-08
1.84873e-08
4.84801e-09
1.51091e-09
5.85059e-10
1.83441e-10
6.81311e-11
2.73591e-11
1.32086e-11
4.76107e-06
3.71102e-11
4.10839e-13
1.78666e-07
4.70534e-06
9.20771e-06
0.000111855
0.000160612
3.39277e-06
5.32622e-10
5.56958e-10
1.90129e-06
2.33469e-06
1.89982e-07
6.3913e-08
1.62149e-08
3.77727e-09
9.44553e-10
3.04748e-10
9.61307e-11
3.39092e-11
9.14762e-12
3.91604e-12
1.30348e-06
2.10953e-09
1.43324e-12
5.74885e-12
-3.39392e-11
8.42129e-07
3.26696e-05
7.59838e-07
4.59104e-07
3.02252e-07
3.06551e-06
3.97464e-06
2.97142e-06
1.63714e-07
4.43089e-08
7.53125e-09
1.71902e-09
4.12607e-10
1.31167e-10
3.84165e-11
1.27617e-11
4.54031e-12
1.62915e-12
1.48818e-06
4.68075e-06
6.01964e-06
1.174e-06
3.51757e-08
1.19243e-07
3.67185e-07
2.30456e-07
1.37937e-06
3.84143e-06
3.97968e-06
4.00201e-06
7.77385e-07
9.67502e-08
1.3037e-08
2.48262e-09
5.24688e-10
1.34833e-10
4.43831e-11
1.65248e-11
6.61782e-12
2.00331e-12
7.09401e-13
8.7119e-06
2.94459e-05
2.96272e-05
3.62467e-06
1.1199e-08
2.21406e-08
1.31612e-07
2.77386e-07
3.75648e-06
3.99242e-06
3.95635e-06
1.90288e-06
6.94684e-08
3.30102e-08
2.62969e-09
3.6837e-10
1.16101e-10
5.33649e-11
2.67601e-11
1.05732e-11
4.21341e-12
1.44039e-12
4.15069e-13
1.88361e-05
2.92925e-05
3.03202e-05
5.16865e-06
2.59629e-09
4.70211e-09
3.05841e-08
1.2496e-07
1.76882e-06
3.28791e-06
1.92558e-06
1.37601e-07
5.09719e-08
1.48056e-09
3.83151e-10
1.35127e-10
7.6764e-11
4.23116e-11
2.04476e-11
8.26395e-12
3.27364e-12
7.94322e-13
2.32086e-13
1.02299e-05
3.17314e-06
2.68226e-05
6.57289e-06
1.04477e-09
1.09222e-09
1.02976e-08
5.253e-08
5.38178e-08
1.25317e-07
7.2114e-08
1.31611e-08
3.3464e-09
6.8319e-10
1.80502e-10
1.11129e-10
6.8146e-11
3.54679e-11
1.67213e-11
6.083e-12
1.90896e-12
5.46365e-13
1.1279e-13
2.12585e-06
1.17353e-06
1.19449e-06
9.3099e-06
8.08717e-09
1.80068e-08
4.02223e-08
9.16243e-08
4.50386e-08
1.39556e-08
6.94258e-09
7.23254e-09
1.42002e-09
2.77534e-10
1.57194e-10
1.06272e-10
5.9142e-11
2.81804e-11
1.19107e-11
4.10801e-12
1.25605e-12
2.81538e-13
6.09997e-14
5.57138e-07
5.46503e-07
1.26919e-06
5.89314e-06
1.51725e-08
4.60095e-08
9.20286e-08
9.21449e-08
5.35499e-08
1.18825e-08
9.84856e-09
3.27508e-09
5.47246e-10
2.57287e-10
1.72256e-10
9.60449e-11
4.6633e-11
1.99026e-11
7.70087e-12
2.34452e-12
6.12418e-13
1.40076e-13
2.03689e-14
5.59557e-07
5.33913e-07
7.55038e-07
3.08628e-07
1.71891e-08
6.20393e-08
9.18401e-08
6.37234e-08
1.72468e-08
9.99707e-09
4.90943e-09
1.02394e-09
4.25587e-10
2.69285e-10
1.48323e-10
7.22198e-11
3.14163e-11
1.20101e-11
4.03647e-12
1.19493e-12
3.0827e-13
6.05266e-14
1.04659e-14
9.9132e-07
5.23034e-07
5.77088e-08
4.39367e-08
2.70412e-08
4.28224e-08
4.50468e-08
1.49614e-08
1.12762e-08
5.78185e-09
1.50076e-09
6.80099e-10
3.93807e-10
2.14031e-10
1.04057e-10
4.53694e-11
1.78393e-11
6.3062e-12
1.98774e-12
5.33075e-13
1.19514e-13
2.27316e-14
2.2702e-15
1.1732e-06
1.10229e-06
4.93726e-08
4.9033e-08
5.28709e-08
5.16195e-08
9.9767e-09
5.1419e-09
6.24955e-09
2.17387e-09
9.94546e-10
5.52801e-10
2.88188e-10
1.39122e-10
6.14344e-11
2.47706e-11
9.02451e-12
2.92793e-12
8.32703e-13
2.00892e-13
4.14762e-14
6.29083e-15
9.58677e-16
9.16936e-07
1.38249e-06
4.89923e-08
4.966e-08
6.59954e-08
6.60093e-08
1.21976e-08
2.35712e-09
2.80349e-09
1.36285e-09
7.32711e-10
3.8034e-10
1.79603e-10
7.73455e-11
3.22731e-11
1.21308e-11
4.06082e-12
1.18647e-12
3.03112e-13
6.61444e-14
1.19684e-14
1.88808e-15
2.10027e-16
7.33341e-07
1.72622e-06
2.96884e-07
4.69752e-08
6.58896e-08
6.55939e-08
8.84024e-09
2.31736e-09
1.6849e-09
8.95013e-10
4.59484e-10
2.25846e-10
1.04158e-10
4.24723e-11
1.57238e-11
5.45994e-12
1.63465e-12
4.28786e-13
9.7965e-14
1.93362e-14
3.34099e-15
4.0807e-16
5.2599e-17
7.12541e-07
1.72491e-06
1.19489e-06
3.60225e-08
3.27932e-08
1.44274e-08
3.9433e-09
1.70601e-09
1.01286e-09
5.52169e-10
2.78303e-10
1.2985e-10
5.55717e-11
2.14086e-11
6.82082e-12
2.08417e-12
5.50786e-13
1.28416e-13
2.63242e-14
4.68278e-15
6.43557e-16
8.20236e-17
8.73781e-18
5.83243e-07
1.66943e-06
1.66034e-06
1.34571e-07
1.85466e-08
1.2824e-09
1.28507e-09
1.01257e-09
6.37451e-10
3.3992e-10
1.64183e-10
6.93588e-11
2.59748e-11
8.83326e-12
2.51497e-12
7.01913e-13
1.67136e-13
3.48744e-14
5.86055e-15
9.30488e-16
1.28215e-16
1.43411e-17
1.31352e-18
4.51231e-07
4.93891e-07
8.87718e-07
1.48672e-07
2.39108e-08
1.4731e-09
9.96089e-10
7.00327e-10
4.15907e-10
2.04068e-10
8.55891e-11
3.29909e-11
1.14455e-11
3.09563e-12
8.71793e-13
2.07244e-13
4.27319e-14
7.71797e-15
1.22486e-15
1.69407e-16
2.01318e-17
2.0387e-18
1.7639e-19
2.60725e-07
2.22323e-08
2.27586e-08
3.02025e-08
1.02379e-08
2.68931e-09
1.22515e-09
6.03374e-10
2.6339e-10
1.117e-10
4.26937e-11
1.41778e-11
4.09953e-12
1.15104e-12
2.75329e-13
5.74076e-14
1.04459e-14
1.67468e-15
2.35914e-16
2.90056e-17
3.08323e-18
2.80381e-19
2.15811e-20
1.27207e-07
3.68218e-08
1.86974e-08
1.05998e-08
5.9875e-09
2.68728e-09
1.06451e-09
4.14337e-10
1.55044e-10
5.10408e-11
1.76178e-11
4.94752e-12
1.43667e-12
3.51835e-13
7.51967e-14
1.41173e-14
2.30922e-15
3.26019e-16
4.04764e-17
3.94814e-18
3.82859e-19
3.04628e-20
1.98211e-21
3.55774e-08
2.43033e-08
1.87885e-08
9.68049e-09
4.2013e-09
1.63468e-09
6.04016e-10
2.03976e-10
6.50147e-11
2.16936e-11
5.97534e-12
1.61303e-12
3.88052e-13
8.94758e-14
1.78083e-14
3.05786e-15
4.54055e-16
5.84802e-17
5.81839e-18
5.537e-19
4.38631e-20
2.86115e-21
1.52231e-22
6.67617e-09
8.60655e-09
9.07201e-09
4.89851e-09
1.84229e-09
7.44966e-10
2.53039e-10
8.40034e-11
2.41714e-11
6.90793e-12
1.78465e-12
4.00329e-13
1.03234e-13
2.05282e-14
3.8467e-15
6.11136e-16
8.26356e-17
9.46804e-18
9.04296e-19
7.09233e-20
4.47078e-21
2.27396e-22
9.40064e-24
3.15731e-09
3.16328e-09
3.14151e-09
1.51963e-09
6.85283e-10
2.46859e-10
8.02866e-11
2.52489e-11
7.34794e-12
1.92052e-12
5.0805e-13
1.13269e-13
2.20047e-14
3.98261e-15
6.93235e-16
1.02481e-16
1.28211e-17
1.35558e-18
1.16915e-19
8.03015e-21
4.28553e-22
1.71161e-23
5.02562e-25
1.12395e-09
1.08721e-09
9.77342e-10
5.14219e-10
2.07708e-10
7.54121e-11
2.52062e-11
7.68919e-12
2.13665e-12
5.58997e-13
1.22787e-13
2.7019e-14
5.12367e-15
8.76616e-16
1.34747e-16
1.78439e-17
1.9827e-18
1.83893e-19
1.38822e-20
8.24888e-22
3.69091e-23
1.18276e-24
2.13116e-26
3.55553e-10
3.93835e-10
2.85025e-10
1.4641e-10
5.82719e-11
2.03894e-11
6.5374e-12
1.92405e-12
4.71382e-13
1.14645e-13
2.62505e-14
5.1488e-15
9.0991e-16
1.42306e-16
1.94658e-17
2.45209e-18
2.60926e-19
2.17214e-20
1.44907e-21
7.37576e-23
2.7047e-24
6.66743e-26
9.5972e-28
0.74212
0.490906
0.439344
0.371691
0.608848
0.643896
0.705385
0.700112
0.828357
0.866304
0.871062
0.795584
0.90333
0.808649
0.610774
0.554932
0.537819
0.245587
0.152123
0.142209
0.0228889
0.0115498
0.0822232
0.0938521
2.64643e-06
0.000107716
0.00918381
0.0194995
5.77911e-06
4.40595e-06
1.00819e-05
3.38481e-05
8.12005e-06
2.2298e-09
2.12062e-09
2.12335e-09
1.98927e-09
1.98294e-09
2.1301e-09
1.19103e-08
1.98154e-09
2.07815e-09
8.12527e-09
1.78964e-08
2.68925e-09
8.30174e-09
1.38896e-08
2.38017e-08
2.00302e-09
2.36718e-09
2.92475e-09
3.4867e-09
1.58612e-09
1.56056e-09
1.13001e-09
9.23955e-10
7.8422e-10
5.69717e-10
4.8865e-10
4.50091e-10
2.90862e-10
2.34501e-10
1.77115e-10
1.24072e-10
9.53485e-11
6.56767e-11
4.45231e-11
2.48147e-11
2.15557e-11
1.05915e-11
6.48156e-12
3.33839e-12
5.17387e-12
2.00649e-12
8.06792e-13
6.79086e-13
9.1293e-13
2.40401e-13
2.17116e-13
2.12835e-13
2.06885e-13
6.18148e-14
5.13382e-14
6.53813e-14
8.10002e-14
1.07366e-14
1.34492e-14
1.44124e-14
7.39545e-14
3.5408e-15
2.40528e-15
3.32196e-15
1.9169e-14
9.17978e-16
5.28904e-16
5.14578e-16
2.50558e-14
3.31186e-15
2.82778e-16
1.22655e-16
1.22882e-14
2.47282e-15
4.19612e-16
7.69121e-17
7.49181e-15
2.29846e-15
3.64891e-16
9.0521e-17
2.02886e-15
4.87845e-16
1.2683e-16
2.12228e-17
6.82557e-16
1.59657e-16
2.9085e-17
6.08734e-18
2.0119e-16
3.46503e-17
6.31845e-18
9.7748e-19
4.52481e-17
7.57357e-18
1.37038e-18
2.4066e-19
9.2404e-18
1.3162e-18
1.93738e-19
1.77867e-20
1.46382e-18
2.24603e-19
2.73478e-20
4.17929e-21
1.90265e-19
2.67883e-20
3.7181e-21
3.50735e-22
2.24945e-20
2.46703e-21
2.6993e-22
3.17722e-23
2.72012e-21
3.06597e-22
3.04023e-23
2.0012e-24
2.10894e-22
2.02166e-23
1.73564e-24
1.22333e-25
1.30457e-23
9.78112e-25
6.23005e-26
2.54993e-27
5.99199e-25
3.15753e-26
1.43119e-27
5.03163e-29
1.89096e-26
7.86605e-28
2.69648e-29
1.86333e-31
6.23379e-28
1.43346e-29
2.40738e-31
1.62114e-31
1.73905e-29
2.15686e-31
1.29072e-32
2.00031e-31
0.216196
0.638217
0.304986
0.0959703
0.0531489
0.045691
0.00599229
0.00832835
0.0410357
0.212206
0.380639
0.411686
0.228304
0.222528
0.380371
0.189828
0.15394
0.159567
0.295343
0.70496
0.787878
0.631332
0.363064
0.149727
0.059555
0.00706708
0.000506905
0.000113812
0.000115463
0.000249533
1.18823e-14
1.05191e-23
4.74587e-24
8.31706e-16
5.26134e-13
4.71518e-05
0.0195751
0.141384
0.800506
0.80076
0.665953
0.372182
0.149794
0.0219001
0.0130258
0.000906106
0.000115466
0.0134476
0.0162255
0.0107969
0.000119805
-8.11854e-25
8.65941e-07
2.56055e-06
4.22274e-09
3.46544e-09
3.46658e-09
0.567629
0.560161
0.36518
0.182793
0.0168015
0.0136559
0.00547465
0.000624866
0.000504064
0.00235487
0.0149594
0.0149197
0.00210754
-4.08153e-12
3.3457e-06
6.20002e-06
3.45749e-06
3.65168e-09
2.71703e-08
0.148356
0.0986602
0.0773661
0.0440112
0.0314841
0.0181297
0.000596333
1.81942e-07
1.78073e-07
8.15648e-05
0.00660871
0.0114713
0.000540858
-7.89612e-14
-1.03264e-12
9.39442e-10
8.33235e-10
1.24845e-08
2.63374e-08
0.0972089
0.0490303
0.0466471
0.0185306
5.44313e-12
1.47082e-17
-1.41006e-07
1.918e-06
5.7151e-07
3.47125e-06
6.26811e-05
0.000871868
0.000391094
5.64649e-14
2.10845e-10
1.05825e-09
2.84599e-11
1.04813e-11
1.01569e-11
0.0193882
0.0201441
0.00772708
-2.18334e-08
-5.44315e-12
6.90074e-06
1.5184e-05
6.17236e-06
1.23759e-06
4.11896e-06
6.71681e-06
2.11497e-06
3.24599e-06
4.91872e-06
6.48992e-11
1.75118e-10
1.53813e-10
2.74388e-11
9.97861e-12
0.00138586
7.61786e-10
7.92863e-10
2.52104e-06
7.85677e-08
3.5619e-07
1.32e-06
1.44722e-06
3.99829e-07
4.44638e-06
6.95995e-06
4.26143e-06
1.68337e-06
1.03635e-07
2.83739e-11
1.33876e-10
1.03185e-10
2.83446e-11
9.57044e-12
2.12332e-09
1.03996e-07
4.54455e-08
6.51609e-08
2.85396e-08
2.94815e-08
2.87401e-08
1.0273e-07
2.88282e-07
7.88579e-07
1.36206e-06
1.3743e-06
3.6094e-07
5.55824e-11
8.14722e-11
1.38692e-10
1.2431e-10
5.51384e-11
4.20754e-12
2.64765e-08
5.23873e-08
2.52782e-08
9.44498e-08
1.14069e-07
1.13327e-07
4.01815e-08
9.19027e-09
1.09155e-08
1.13924e-10
2.24999e-08
1.1515e-10
1.14666e-10
1.74365e-10
2.34594e-10
2.51465e-10
2.22218e-10
8.19272e-11
5.57978e-12
2.41616e-08
2.0913e-08
2.0922e-08
2.1791e-08
5.39667e-08
1.25673e-07
1.25912e-07
1.10747e-07
5.66719e-08
1.04672e-08
2.96426e-09
6.57045e-10
6.4102e-10
6.04886e-10
5.26873e-10
3.97315e-10
2.65764e-10
9.05805e-11
6.74045e-12
5.0671e-08
6.87393e-08
6.95117e-08
4.24083e-08
2.12397e-08
7.9879e-09
3.39602e-08
6.8352e-08
7.23404e-08
5.46963e-08
1.93114e-08
4.43053e-09
1.46758e-09
8.79381e-10
6.57123e-10
4.00222e-10
2.74279e-10
8.37897e-11
6.15446e-12
3.6814e-09
6.04365e-09
9.38243e-09
1.07148e-08
1.07593e-08
5.93329e-09
1.54226e-09
1.10698e-09
8.79358e-09
7.80244e-09
7.37362e-09
6.43172e-09
3.63236e-09
1.31653e-09
7.2916e-10
3.5423e-10
2.09057e-10
5.2127e-11
3.84343e-12
6.27292e-10
5.3896e-10
2.14334e-10
3.60839e-10
4.73547e-10
5.40834e-10
7.49789e-10
6.76682e-10
4.97195e-10
4.96796e-10
4.96648e-10
6.27602e-10
9.53171e-10
9.39996e-10
6.25152e-10
2.83508e-10
1.31623e-10
2.8748e-11
2.71121e-12
3.41537e-10
2.12281e-10
1.41202e-10
1.52203e-10
3.23825e-10
6.04238e-10
9.03752e-10
1.18092e-09
1.1981e-09
1.10671e-09
7.9687e-10
4.74911e-10
3.60892e-10
3.12081e-10
2.3692e-10
1.53345e-10
8.29404e-11
1.73902e-11
2.43493e-12
7.92815e-11
3.74693e-11
3.17224e-11
3.91984e-11
7.20125e-11
2.36282e-10
4.48695e-10
7.4363e-10
1.01809e-09
1.00204e-09
8.02236e-10
4.57656e-10
2.78283e-10
1.85388e-10
1.28824e-10
9.10887e-11
4.55091e-11
9.3452e-12
2.23419e-12
1.24862e-11
8.19727e-12
8.45622e-12
1.55787e-11
2.5369e-11
4.53009e-11
1.19091e-10
2.22328e-10
2.72725e-10
2.57415e-10
2.14183e-10
1.54222e-10
1.11473e-10
8.42679e-11
6.7083e-11
4.66917e-11
2.22769e-11
4.74966e-12
2.02649e-12
1.50825e-12
2.12918e-12
3.22803e-12
5.11654e-12
9.29411e-12
2.00906e-11
3.81611e-11
5.33471e-11
5.00767e-11
4.72771e-11
4.4444e-11
4.09047e-11
4.01619e-11
3.86891e-11
3.2714e-11
2.41656e-11
7.83992e-12
2.80255e-12
1.77341e-12
3.83393e-13
5.86717e-13
9.36977e-13
1.58837e-12
3.37521e-12
7.99062e-12
1.55993e-11
1.68209e-11
1.77569e-11
1.84038e-11
1.98213e-11
2.19663e-11
2.25299e-11
2.10675e-11
1.64742e-11
8.32654e-12
2.64898e-12
2.10259e-12
1.61582e-12
1.97923e-13
2.09169e-13
2.99457e-13
7.91058e-13
1.66819e-12
2.99765e-12
4.21574e-12
5.68325e-12
7.53309e-12
9.93221e-12
1.14006e-11
1.15848e-11
1.10446e-11
8.36353e-12
5.05561e-12
1.92303e-12
1.16104e-12
1.76487e-12
1.43843e-12
6.93347e-14
7.47511e-14
1.11529e-13
3.33005e-13
6.06013e-13
9.75716e-13
1.44453e-12
2.35711e-12
3.63302e-12
4.90882e-12
5.02157e-12
4.90914e-12
3.01801e-12
1.04275e-12
4.26495e-13
3.08545e-13
7.37088e-13
1.63525e-12
1.27828e-12
1.75948e-14
1.93145e-14
3.48136e-14
9.89351e-14
1.95137e-13
2.97906e-13
5.56437e-13
1.02573e-12
1.6577e-12
1.81277e-12
1.81837e-12
1.21194e-12
4.59246e-13
7.96481e-14
3.19227e-14
1.16794e-13
6.05639e-13
1.54162e-12
1.12811e-12
3.24171e-15
4.07398e-15
8.67153e-15
2.43238e-14
5.24938e-14
1.06386e-13
2.28727e-13
4.17984e-13
5.10515e-13
5.38602e-13
3.08816e-13
1.06141e-13
1.73359e-14
1.76657e-15
1.37466e-14
9.8394e-14
5.07999e-13
1.29763e-12
9.82591e-13
6.17024e-16
8.70874e-16
2.21313e-15
7.25516e-15
1.79872e-14
4.3997e-14
8.67588e-14
1.15254e-13
1.27341e-13
6.84715e-14
2.32565e-14
3.70932e-15
4.29822e-16
9.60885e-16
1.36972e-14
9.42392e-14
4.83412e-13
1.15253e-12
8.66024e-13
9.98933e-17
1.46272e-16
5.64617e-16
2.42224e-15
7.77186e-15
1.52073e-14
2.09172e-14
2.31262e-14
1.50789e-14
5.22151e-15
7.06196e-16
6.49556e-17
2.69269e-16
1.39763e-15
1.40928e-14
1.01086e-13
4.83182e-13
1.00405e-12
7.38964e-13
2.01494e-17
2.75605e-17
1.59097e-16
8.63728e-16
2.53466e-15
3.49378e-15
3.95606e-15
3.88831e-15
1.13854e-15
1.51048e-16
8.85417e-18
3.45538e-17
3.28371e-16
2.86016e-15
1.73966e-14
1.10049e-13
4.64571e-13
8.77417e-13
4.87288e-13
9.61849e-18
6.00352e-18
4.86452e-17
2.50257e-16
3.92619e-16
5.0839e-16
5.27509e-16
1.8566e-16
4.70985e-17
6.38723e-18
1.42718e-18
3.45627e-17
3.83705e-16
3.57612e-15
2.4892e-14
1.30962e-13
4.87134e-13
6.94993e-13
3.41993e-13
2.01125e-18
1.54414e-18
1.27558e-17
3.53227e-17
5.0496e-17
5.40322e-17
5.26226e-17
1.33885e-17
1.49645e-18
9.80157e-20
7.6694e-19
3.33969e-17
3.91595e-16
3.98159e-15
3.45496e-14
1.79615e-13
4.95593e-13
5.99381e-13
2.26491e-13
5.31531e-19
3.41306e-19
1.95412e-18
3.46979e-18
4.94338e-18
5.17244e-18
4.40867e-18
7.71685e-19
4.03654e-20
2.24114e-20
4.63606e-19
1.78358e-17
2.61709e-16
4.0031e-15
3.70741e-14
1.87066e-13
4.50779e-13
4.316e-13
1.53969e-13
8.19246e-20
6.42764e-20
2.08005e-19
3.26335e-19
3.70231e-19
3.63947e-19
2.46984e-19
6.05435e-20
3.48008e-21
1.85783e-20
3.66153e-19
9.12359e-18
1.58452e-16
3.5706e-15
3.04664e-14
1.383e-13
2.79998e-13
2.78244e-13
9.02475e-14
1.74035e-20
7.26316e-21
1.44674e-20
2.13584e-20
2.27945e-20
1.80476e-20
8.27171e-21
1.19787e-21
1.08232e-21
1.53008e-20
3.22478e-19
8.15611e-18
1.41367e-16
2.86876e-15
1.89508e-14
6.59089e-14
1.28214e-13
1.13656e-13
4.43553e-14
1.58745e-21
6.25541e-22
9.84431e-22
1.19692e-21
1.10884e-21
6.6185e-22
1.5305e-22
5.9529e-23
6.12805e-22
9.89542e-21
2.06287e-19
4.52742e-18
5.70523e-17
1.22011e-15
8.94483e-15
2.52747e-14
4.07607e-14
4.85446e-14
1.81681e-14
2.3164e-22
3.81436e-23
5.61866e-23
5.87171e-23
4.12408e-23
1.43664e-23
5.62606e-24
3.16473e-23
3.17752e-22
4.47497e-21
9.24008e-20
2.08053e-18
2.5708e-17
4.67158e-16
3.07903e-15
7.98228e-15
1.22563e-14
1.16377e-14
5.92013e-15
2.28496e-23
2.26713e-24
2.7168e-24
2.39541e-24
1.18849e-24
7.36713e-25
3.55042e-24
2.20422e-23
1.38901e-22
1.31566e-21
2.44894e-20
5.96863e-19
7.88063e-18
1.25095e-16
8.07608e-16
1.67824e-15
2.2401e-15
2.72964e-15
1.60623e-15
1.42935e-24
1.05927e-25
9.70302e-26
6.19766e-26
8.31256e-26
4.73408e-25
2.9492e-24
1.57583e-23
6.93549e-23
3.21263e-22
3.41658e-21
9.28518e-20
1.55406e-18
2.19191e-17
1.47626e-16
2.96247e-16
3.91529e-16
2.42458e-16
3.75894e-16
7.61435e-26
4.78706e-27
3.79727e-27
7.47776e-27
5.70311e-26
4.00625e-25
2.2845e-24
1.03021e-23
3.76555e-23
1.17169e-22
4.54937e-22
7.8381e-21
1.78442e-19
2.22195e-18
1.71262e-17
4.95499e-17
6.65441e-17
5.7652e-17
7.61845e-17
2.88154e-27
1.9804e-28
5.64972e-28
5.46441e-27
4.83682e-26
3.07187e-25
1.52017e-24
6.00109e-24
1.91389e-23
4.99288e-23
1.20557e-22
3.90647e-22
5.39019e-21
2.33808e-19
2.36431e-18
4.50932e-18
3.64276e-18
4.66744e-18
1.56785e-17
4.29406e-29
3.59189e-29
4.51273e-28
4.86919e-27
3.76659e-26
2.06962e-25
8.79749e-25
3.08512e-24
8.69266e-24
1.99906e-23
4.11794e-23
7.33489e-23
2.51007e-22
1.29542e-20
1.57909e-19
2.6661e-19
3.28204e-19
9.87606e-19
3.55401e-18
2.35902e-30
3.00845e-29
4.38089e-28
4.05211e-27
2.52721e-26
1.16029e-25
4.19872e-25
1.23468e-24
3.02564e-24
6.45057e-24
1.22276e-23
1.87349e-23
2.94648e-23
2.28735e-22
5.57398e-21
1.47569e-20
4.04325e-20
2.79234e-19
1.13916e-18
1.93304e-30
3.42037e-29
3.8999e-28
2.74094e-27
1.30957e-26
4.61864e-26
1.2867e-25
3.10396e-25
6.58859e-25
1.28272e-24
2.13645e-24
2.99786e-24
4.37255e-24
3.65841e-24
5.59021e-23
8.05656e-22
9.86585e-21
7.19284e-20
3.31159e-19
2.51992e-30
3.14808e-29
2.4551e-28
1.22135e-27
4.47619e-27
1.34294e-26
3.43105e-26
7.23892e-26
1.34429e-25
2.44645e-25
3.83658e-25
5.55197e-25
7.16882e-25
4.80879e-25
9.06168e-24
1.47186e-22
1.26254e-21
1.12351e-20
3.65626e-20
2.0313e-30
1.5793e-29
7.66042e-29
2.68307e-28
7.4363e-28
1.77005e-27
3.76051e-27
7.23736e-27
1.23313e-26
1.82325e-26
2.60414e-26
3.32536e-26
4.14085e-26
1.65472e-26
1.42623e-25
3.8212e-24
5.00649e-23
2.39717e-22
6.74638e-23
)
;

boundaryField
{
    leftWall
    {
        type            zeroGradient;
    }
    rightWall
    {
        type            zeroGradient;
    }
    lowerWall
    {
        type            zeroGradient;
    }
    atmosphere
    {
        type            inletOutlet;
        inletValue      uniform 0;
        value           nonuniform List<scalar> 
46
(
3.55553e-10
3.93835e-10
2.85025e-10
1.4641e-10
5.82719e-11
2.03894e-11
6.5374e-12
1.92405e-12
4.71382e-13
1.14645e-13
2.62505e-14
5.1488e-15
9.0991e-16
1.42306e-16
1.94658e-17
2.45209e-18
2.60926e-19
2.17214e-20
1.44907e-21
7.37576e-23
2.7047e-24
6.66743e-26
9.5972e-28
1.73905e-29
2.15686e-31
1.29072e-32
0
0
0
0
0
0
0
0
0
0
0
0
0
0
0
0
0
0
0
0
)
;
    }
    defaultFaces
    {
        type            empty;
    }
}


// ************************************************************************* //
