/*--------------------------------*- C++ -*----------------------------------*\
| =========                 |                                                 |
| \\      /  F ield         | OpenFOAM: The Open Source CFD Toolbox           |
|  \\    /   O peration     | Version:  2312                                  |
|   \\  /    A nd           | Website:  www.openfoam.com                      |
|    \\/     M anipulation  |                                                 |
\*---------------------------------------------------------------------------*/
FoamFile
{
    version     2.0;
    format      ascii;
    arch        "LSB;label=32;scalar=64";
    class       surfaceScalarField;
    location    "1.2";
    object      phi;
}
// * * * * * * * * * * * * * * * * * * * * * * * * * * * * * * * * * * * * * //

dimensions      [0 3 -1 0 0 0 0];

oriented        oriented;

internalField   nonuniform List<scalar> 
4432
(
7.19859e-06
-7.19861e-06
1.08198e-05
-3.62117e-06
1.29517e-05
-2.13199e-06
1.42101e-05
-1.25843e-06
1.47617e-05
-5.5157e-07
1.46246e-05
1.37129e-07
1.37485e-05
8.76045e-07
1.20886e-05
1.65996e-06
9.72596e-06
2.36258e-06
6.88282e-06
2.84314e-06
3.90958e-06
2.97324e-06
1.19583e-06
2.71375e-06
-9.90959e-07
2.18678e-06
-2.49904e-06
1.50808e-06
-3.35504e-06
8.56003e-07
-3.66705e-06
3.12013e-07
-3.59444e-06
-7.26185e-08
-3.2754e-06
-3.19037e-07
-2.79479e-06
-4.80608e-07
-2.18546e-06
-6.0933e-07
-1.45633e-06
-7.29136e-07
-5.09702e-07
-9.46627e-07
-5.09702e-07
7.00254e-06
-1.42012e-05
1.07655e-05
-7.38416e-06
1.2985e-05
-4.35148e-06
1.42712e-05
-2.54463e-06
1.4836e-05
-1.11637e-06
1.46959e-05
2.77195e-07
1.37923e-05
1.77968e-06
1.21068e-05
3.34544e-06
9.68688e-06
4.78254e-06
6.76584e-06
5.76418e-06
3.70088e-06
6.03819e-06
9.04257e-07
5.51036e-06
-1.31437e-06
4.40541e-06
-2.82974e-06
3.02345e-06
-3.67392e-06
1.70019e-06
-3.96832e-06
6.0641e-07
-3.87416e-06
-1.66782e-07
-3.54747e-06
-6.45724e-07
-3.07833e-06
-9.49747e-07
-2.49525e-06
-1.19242e-06
-1.78198e-06
-1.44241e-06
-9.23022e-07
-1.80558e-06
-1.43273e-06
6.53292e-06
-2.07341e-05
1.04642e-05
-1.13154e-05
1.28425e-05
-6.7298e-06
1.42238e-05
-3.92594e-06
1.48327e-05
-1.72525e-06
1.46969e-05
4.12906e-07
1.37898e-05
2.68686e-06
1.2043e-05
5.09221e-06
9.51335e-06
7.31217e-06
6.43137e-06
8.84616e-06
3.19657e-06
9.27299e-06
2.7815e-07
8.42877e-06
-1.99883e-06
6.68238e-06
-3.50855e-06
4.53317e-06
-4.30964e-06
2.50127e-06
-4.53005e-06
8.26823e-07
-4.35612e-06
-3.40712e-07
-3.97832e-06
-1.02353e-06
-3.4809e-06
-1.44717e-06
-2.87357e-06
-1.79974e-06
-2.1081e-06
-2.20788e-06
-1.14113e-06
-2.77255e-06
-2.57386e-06
5.86325e-06
-2.65974e-05
9.85488e-06
-1.53071e-05
1.23019e-05
-9.17679e-06
1.37917e-05
-5.41571e-06
1.45148e-05
-2.44835e-06
1.44441e-05
4.83544e-07
1.35684e-05
3.56257e-06
1.1794e-05
6.86667e-06
9.1553e-06
9.95082e-06
5.91818e-06
1.20833e-05
2.50841e-06
1.26828e-05
-5.08539e-07
1.14457e-05
-2.80288e-06
8.97672e-06
-4.25323e-06
5.98352e-06
-4.94128e-06
3.18932e-06
-4.96695e-06
8.52497e-07
-4.6863e-06
-6.21363e-07
-4.20409e-06
-1.50573e-06
-3.65738e-06
-1.99389e-06
-3.03999e-06
-2.41714e-06
-2.2539e-06
-2.99397e-06
-1.24236e-06
-3.7841e-06
-3.81622e-06
5.05514e-06
-3.16525e-05
9.06142e-06
-1.93134e-05
1.14267e-05
-1.15421e-05
1.29285e-05
-6.91749e-06
1.38073e-05
-3.32715e-06
1.39479e-05
3.42858e-07
1.32638e-05
4.24672e-06
1.15987e-05
8.53177e-06
8.96225e-06
1.25872e-05
5.60577e-06
1.54398e-05
2.02325e-06
1.62653e-05
-1.18249e-06
1.46515e-05
-3.42352e-06
1.12178e-05
-4.59305e-06
7.15305e-06
-4.97761e-06
3.57388e-06
-4.72811e-06
6.02995e-07
-4.0731e-06
-1.27638e-06
-3.30688e-06
-2.27195e-06
-2.62e-06
-2.68077e-06
-2.05204e-06
-2.9851e-06
-1.52719e-06
-3.51881e-06
-9.4487e-07
-4.36642e-06
-4.76109e-06
4.03881e-06
-3.56913e-05
8.12763e-06
-2.34022e-05
1.05049e-05
-1.39194e-05
1.20448e-05
-8.45737e-06
1.31036e-05
-4.38595e-06
1.35025e-05
-5.60143e-08
1.31915e-05
4.55774e-06
1.19007e-05
9.8225e-06
9.652e-06
1.4836e-05
6.78565e-06
1.83061e-05
3.82827e-06
1.92227e-05
1.4239e-06
1.70559e-05
3.98196e-08
1.26018e-05
-3.25103e-07
7.51797e-06
2.01322e-08
3.22864e-06
9.355e-07
-3.12372e-07
2.30399e-06
-2.64487e-06
3.73386e-06
-3.70182e-06
4.70283e-06
-3.64973e-06
4.55666e-06
-2.83893e-06
3.19107e-06
-2.15322e-06
1.21694e-06
-2.39229e-06
-3.54413e-06
3.33141e-06
-3.90227e-05
7.33096e-06
-2.74017e-05
9.75136e-06
-1.63398e-05
1.17529e-05
-1.04589e-05
1.33028e-05
-5.93588e-06
1.42606e-05
-1.0138e-06
1.47911e-05
4.02731e-06
1.44751e-05
1.01384e-05
1.3456e-05
1.58552e-05
1.24047e-05
1.93574e-05
1.19333e-05
1.96942e-05
1.27527e-05
1.62364e-05
1.50423e-05
1.03123e-05
1.69087e-05
5.65158e-06
1.84296e-05
1.70777e-06
1.96367e-05
-1.51944e-06
2.08427e-05
-3.85089e-06
2.24747e-05
-5.33385e-06
2.45148e-05
-5.68986e-06
2.589e-05
-4.21403e-06
2.4409e-05
-6.72261e-07
1.67044e-05
5.31235e-06
1.31603e-05
2.91889e-06
-4.19416e-05
6.81767e-06
-3.13005e-05
9.93361e-06
-1.94557e-05
1.26591e-05
-1.31845e-05
1.50419e-05
-8.31864e-06
1.68677e-05
-2.83964e-06
1.84356e-05
2.4594e-06
1.95376e-05
9.03642e-06
1.95582e-05
1.58346e-05
1.88052e-05
2.01105e-05
2.10402e-05
1.74592e-05
2.4037e-05
1.32396e-05
2.63707e-05
7.97862e-06
2.81147e-05
3.90759e-06
2.90378e-05
7.84637e-07
2.93696e-05
-1.85123e-06
2.94611e-05
-3.94237e-06
2.98416e-05
-5.71435e-06
3.06988e-05
-6.54703e-06
3.1235e-05
-4.75029e-06
3.024e-05
3.22724e-07
2.2902e-05
1.26505e-05
3.60622e-05
-1.63596e-06
1.63596e-06
-3.43812e-06
1.80216e-06
-1.29266e-05
9.48849e-06
-2.80516e-05
1.5125e-05
-3.17589e-05
3.70732e-06
-3.03539e-05
-1.405e-06
-2.49355e-05
-5.41838e-06
-2.29253e-05
-2.01027e-06
-1.86863e-05
-4.23896e-06
-1.27925e-05
-5.89379e-06
-8.3751e-06
-4.41742e-06
-4.42439e-06
-3.9507e-06
-6.38254e-08
-4.36057e-06
3.89027e-06
-3.9541e-06
6.09056e-06
-2.20029e-06
6.65415e-06
-5.63595e-07
7.75185e-06
-1.0977e-06
7.84872e-06
-9.68649e-08
7.84872e-06
-7.8222e-06
9.4582e-06
-1.50802e-05
9.06014e-06
-1.81515e-05
1.25599e-05
-1.86326e-05
1.56061e-05
-1.60776e-05
1.15235e-06
-1.24441e-05
-5.03849e-06
-1.30792e-05
-4.78328e-06
-1.73251e-05
2.2357e-06
-1.51941e-05
-6.36997e-06
-1.17379e-05
-9.35001e-06
-8.88593e-06
-7.26941e-06
-5.61323e-06
-7.22339e-06
-2.76493e-06
-7.20887e-06
-1.14131e-06
-5.57772e-06
-3.63811e-07
-2.97778e-06
-3.68647e-07
-5.5876e-07
2.36302e-08
-1.48998e-06
2.94447e-06
-3.0177e-06
1.07932e-05
-1.46174e-05
2.40756e-05
-2.13237e-05
1.57665e-05
-2.16746e-05
1.29107e-05
-1.91268e-05
1.30584e-05
-1.75704e-05
-4.04137e-07
-1.42368e-05
-8.37203e-06
-1.06965e-05
-8.32359e-06
-6.72735e-06
-1.73345e-06
-7.21404e-06
-5.88328e-06
-9.6228e-06
-6.94126e-06
-9.85584e-06
-7.03637e-06
-7.66628e-06
-9.41295e-06
-4.61982e-06
-1.02553e-05
-4.44492e-06
-5.75262e-06
-7.05521e-06
-3.67493e-07
-1.10871e-05
3.47309e-06
-1.08521e-05
-1.72489e-06
-3.56599e-06
-1.03039e-05
7.2272e-06
-1.5471e-05
3.95466e-05
-2.15493e-05
2.18447e-05
-2.69611e-05
1.83226e-05
-2.61639e-05
1.22612e-05
-2.2561e-05
-4.00707e-06
-1.72222e-05
-1.37108e-05
-1.24718e-05
-1.3074e-05
-5.48832e-06
-8.71688e-06
-2.65983e-06
-8.71177e-06
-7.47893e-06
-2.12216e-06
-1.02778e-05
-4.2375e-06
-9.64158e-06
-1.00492e-05
-8.7122e-06
-1.11847e-05
-1.10959e-05
-3.36889e-06
-1.64276e-05
4.96418e-06
-2.08614e-05
7.90691e-06
-1.73036e-05
-5.2827e-06
-8.13337e-06
-1.94741e-05
-9.06165e-07
-1.63851e-05
5.59317e-05
-2.32227e-05
2.86823e-05
-3.0899e-05
2.59989e-05
-2.99309e-05
1.12932e-05
-2.45835e-05
-9.35457e-06
-1.92438e-05
-1.90504e-05
-1.53542e-05
-1.69637e-05
-1.28221e-05
-1.12489e-05
-1.0919e-05
-1.06149e-05
-1.13061e-05
-1.73504e-06
-1.34805e-05
-2.06311e-06
-1.72232e-05
-6.30649e-06
-1.94302e-05
-8.97772e-06
-1.6511e-05
-6.2881e-06
-1.19576e-05
4.10824e-07
-1.10905e-05
7.0398e-06
-1.28629e-05
-3.51031e-06
-8.41752e-06
-2.39195e-05
-9.32368e-06
-1.69819e-05
7.29136e-05
-2.54968e-05
3.71972e-05
-3.07617e-05
3.12638e-05
-2.86803e-05
9.21183e-06
-2.44289e-05
-1.3606e-05
-1.90029e-05
-2.44764e-05
-1.60454e-05
-1.99212e-05
-1.81465e-05
-9.14785e-06
-2.18566e-05
-6.90476e-06
-2.07132e-05
-2.87846e-06
-2.00257e-05
-2.75062e-06
-1.93047e-05
-7.02753e-06
-1.57164e-05
-1.2566e-05
-9.71799e-06
-1.22865e-05
-5.42017e-06
-3.88699e-06
-2.88392e-06
4.50355e-06
-6.4535e-06
5.9285e-08
-9.17361e-06
-2.11993e-05
-1.84973e-05
-1.59674e-05
8.8881e-05
-2.54698e-05
4.66996e-05
-2.88534e-05
3.46474e-05
-2.75589e-05
7.91741e-06
-2.28279e-05
-1.8337e-05
-9.48235e-06
-3.7822e-05
-8.63098e-06
-2.07726e-05
-1.63929e-05
-1.38595e-06
-2.0736e-05
-2.56163e-06
-2.13846e-05
-2.22983e-06
-2.0311e-05
-3.82422e-06
-1.66091e-05
-1.07294e-05
-1.10182e-05
-1.81569e-05
-5.7268e-06
-1.75779e-05
-3.25466e-06
-6.35913e-06
2.63006e-07
9.85885e-07
-2.17503e-06
2.49733e-06
-7.91103e-06
-1.54633e-05
-2.64083e-05
-1.36321e-05
0.000102513
-2.32795e-05
5.6347e-05
-2.53611e-05
3.6729e-05
-2.4513e-05
7.06933e-06
-2.03871e-05
-2.24629e-05
-1.13703e-05
-4.68388e-05
-3.05766e-06
-2.90853e-05
-6.09376e-06
1.65013e-06
-1.24229e-05
3.76751e-06
-1.36181e-05
-1.03457e-06
-1.44556e-05
-2.98679e-06
-1.19489e-05
-1.32361e-05
-9.25464e-06
-2.08511e-05
-7.64873e-06
-1.91838e-05
-6.923e-06
-7.08486e-06
-2.71085e-06
-3.22626e-06
-1.64211e-06
1.42859e-06
-4.39453e-06
-1.27109e-05
-3.08028e-05
7.0703e-06
-4.90119e-05
1.47154e-05
-3.89456e-05
2.11102e-05
-2.58505e-05
3.04527e-05
-2.2527e-05
4.12107e-05
-1.90767e-05
5.05406e-05
-1.21695e-05
5.74047e-05
-4.40472e-06
5.90784e-05
7.36273e-06
5.99311e-05
1.49819e-05
6.48813e-05
1.51603e-05
6.96495e-05
1.2691e-05
7.33264e-05
9.56273e-06
7.46769e-05
6.62817e-06
7.44563e-05
4.12821e-06
7.32856e-05
1.95531e-06
7.17486e-05
-3.14229e-07
7.05997e-05
-2.79351e-06
7.05724e-05
-5.68699e-06
7.17716e-05
-7.74628e-06
7.14027e-05
-4.38134e-06
6.61081e-05
5.61726e-06
5.74151e-05
2.13435e-05
3.91761e-05
5.43012e-05
7.0298e-06
-5.60417e-05
9.67587e-06
-4.15917e-05
1.24618e-05
-2.86363e-05
1.67487e-05
-2.68139e-05
2.33472e-05
-2.56751e-05
3.3024e-05
-2.18462e-05
4.37201e-05
-1.51008e-05
5.69268e-05
-5.84401e-06
7.0573e-05
1.3357e-06
8.12349e-05
4.49836e-06
8.8479e-05
5.44697e-06
9.27207e-05
5.32104e-06
9.44504e-05
4.89844e-06
9.41444e-05
4.43419e-06
9.24068e-05
3.69291e-06
8.97454e-05
2.34718e-06
8.65772e-05
3.74711e-07
8.20273e-05
-1.13709e-06
7.2888e-05
1.39297e-06
5.68847e-05
1.1622e-05
4.03633e-05
2.21387e-05
2.96436e-05
3.20631e-05
5.06995e-05
1.81203e-05
2.05187e-05
-7.65603e-05
1.55289e-05
-3.66018e-05
1.52791e-05
-2.83865e-05
2.14641e-05
-3.29988e-05
2.98942e-05
-3.41053e-05
4.09246e-05
-3.28765e-05
5.38496e-05
-2.80258e-05
6.79948e-05
-1.99892e-05
8.0946e-05
-1.16155e-05
9.06504e-05
-5.20605e-06
9.70136e-05
-9.16272e-07
0.000100226
2.10895e-06
0.000100719
4.40471e-06
9.89262e-05
6.22736e-06
9.51181e-05
7.50108e-06
8.90482e-05
8.41699e-06
7.95278e-05
9.89518e-06
6.4404e-05
1.39866e-05
4.27216e-05
2.30754e-05
2.20773e-05
3.22663e-05
9.27902e-06
3.49369e-05
3.36845e-06
3.79737e-05
5.17748e-05
2.29312e-06
3.86421e-05
-0.000115202
4.87414e-05
-4.67011e-05
4.17116e-05
-2.13565e-05
3.99907e-05
-3.1278e-05
4.17669e-05
-3.58814e-05
4.86509e-05
-3.97605e-05
5.76683e-05
-3.70431e-05
6.68215e-05
-2.91425e-05
7.53114e-05
-2.01054e-05
8.22906e-05
-1.21853e-05
8.77239e-05
-6.34953e-06
9.1039e-05
-1.20619e-06
9.06404e-05
4.80331e-06
8.62356e-05
1.06321e-05
7.73653e-05
1.63714e-05
6.39435e-05
2.18388e-05
4.64181e-05
2.74206e-05
2.68762e-05
3.35285e-05
9.4003e-06
4.05513e-05
-9.18271e-07
4.25849e-05
-7.15371e-06
4.11724e-05
-1.23249e-05
4.31449e-05
5.01881e-05
-1.07382e-05
2.82908e-05
-0.000143493
6.00403e-05
-7.84506e-05
7.56909e-05
-3.70071e-05
7.81208e-05
-3.37078e-05
7.30452e-05
-3.08057e-05
6.96502e-05
-3.63656e-05
6.71302e-05
-3.45231e-05
6.61457e-05
-2.8158e-05
6.71086e-05
-2.10684e-05
6.77555e-05
-1.28321e-05
6.7603e-05
-6.19699e-06
6.39257e-05
2.47107e-06
5.76417e-05
1.10873e-05
4.8177e-05
2.00968e-05
3.59481e-05
2.86004e-05
2.17988e-05
3.59881e-05
7.66841e-06
4.1551e-05
-3.79075e-06
4.49877e-05
-1.10871e-05
4.78477e-05
-1.41443e-05
4.56421e-05
-1.83227e-05
4.53507e-05
-2.19202e-05
4.67424e-05
4.97953e-05
-2.15273e-05
9.04337e-06
-0.000152537
2.82959e-05
-9.7703e-05
5.61503e-05
-6.48614e-05
6.99526e-05
-4.751e-05
7.66982e-05
-3.75513e-05
7.26421e-05
-3.23095e-05
6.57216e-05
-2.76026e-05
5.54184e-05
-1.78547e-05
4.44535e-05
-1.01034e-05
3.30144e-05
-1.39308e-06
2.49661e-05
1.85129e-06
1.67617e-05
1.06755e-05
9.10078e-06
1.87482e-05
1.3938e-06
2.78038e-05
-6.45428e-06
3.64484e-05
-1.38792e-05
4.3413e-05
-1.9848e-05
4.75198e-05
-2.35891e-05
4.87287e-05
-2.44402e-05
4.86988e-05
-2.47324e-05
4.59343e-05
-2.62411e-05
4.68594e-05
-2.77775e-05
4.82788e-05
4.91962e-05
-2.71784e-05
-1.96692e-06
-0.00015057
9.81766e-06
-0.000109488
2.79293e-05
-8.29731e-05
4.083e-05
-6.04107e-05
5.05916e-05
-4.73129e-05
4.34707e-05
-2.51885e-05
2.89553e-05
-1.30872e-05
1.73395e-05
-6.23885e-06
9.19425e-06
-1.95824e-06
-3.374e-06
1.11752e-05
-1.51385e-05
1.36158e-05
-2.39255e-05
1.94625e-05
-2.92294e-05
2.40522e-05
-3.34069e-05
3.19813e-05
-3.62843e-05
3.93258e-05
-3.83433e-05
4.54719e-05
-3.9162e-05
4.83385e-05
-3.82826e-05
4.78493e-05
-3.65558e-05
4.6972e-05
-3.66642e-05
4.60427e-05
-3.62424e-05
4.64376e-05
-3.44661e-05
4.65025e-05
4.58591e-05
-3.1129e-05
-4.81029e-06
-0.000145759
2.30637e-06
-0.000116604
1.0042e-05
-9.07087e-05
9.58858e-06
-5.99572e-05
-3.47308e-07
-3.73771e-05
-1.22336e-05
-1.33021e-05
-2.14662e-05
-3.85459e-06
-3.3773e-05
6.0679e-06
-4.2697e-05
6.96579e-06
-4.40773e-05
1.25554e-05
-4.83963e-05
1.79348e-05
-5.52623e-05
2.63285e-05
-5.98396e-05
2.86295e-05
-6.0979e-05
3.31207e-05
-5.99095e-05
3.82563e-05
-5.77354e-05
4.32978e-05
-5.51112e-05
4.57143e-05
-5.20404e-05
4.47784e-05
-4.92914e-05
4.42231e-05
-4.67226e-05
4.34739e-05
-4.35064e-05
4.32214e-05
-3.96565e-05
4.26526e-05
4.06749e-05
-3.44723e-05
-7.58663e-06
-0.000138173
-8.49879e-06
-0.000115692
-1.94352e-05
-7.97723e-05
-4.90603e-05
-3.03322e-05
-7.05407e-05
-1.58968e-05
-7.52182e-05
-8.62457e-06
-7.61232e-05
-2.94956e-06
-7.3621e-05
3.56567e-06
-7.51821e-05
8.52684e-06
-7.65887e-05
1.3962e-05
-7.7984e-05
1.93301e-05
-7.79708e-05
2.63153e-05
-7.91911e-05
2.98497e-05
-7.86399e-05
3.25696e-05
-7.66569e-05
3.62732e-05
-7.19431e-05
3.85841e-05
-6.59816e-05
3.97528e-05
-6.04245e-05
3.92213e-05
-5.62382e-05
4.00368e-05
-5.24943e-05
3.97299e-05
-4.77238e-05
3.84509e-05
-4.13791e-05
3.63079e-05
2.94052e-05
-3.01094e-05
-1.20947e-05
-0.000126078
-2.32769e-05
-0.00010451
-5.05077e-05
-5.25415e-05
-8.11103e-05
2.70359e-07
-8.86008e-05
-8.40628e-06
-8.86666e-05
-8.55882e-06
-8.86172e-05
-2.99897e-06
-9.11798e-05
6.12823e-06
-9.57369e-05
1.30839e-05
-9.93069e-05
1.7532e-05
-0.000100561
2.05845e-05
-9.83835e-05
2.41375e-05
-9.54047e-05
2.68708e-05
-9.09791e-05
2.8144e-05
-8.41835e-05
2.94776e-05
-7.69013e-05
3.13019e-05
-6.98258e-05
3.26773e-05
-6.24036e-05
3.17992e-05
-5.53939e-05
3.3027e-05
-4.79111e-05
3.22472e-05
-3.91335e-05
2.96731e-05
-2.65306e-05
2.37048e-05
3.47701e-05
-3.18955e-05
-1.44421e-05
-0.000111636
-2.84236e-05
-9.05284e-05
-4.79143e-05
-3.30508e-05
-7.76589e-05
3.0015e-05
-8.58364e-05
-2.2872e-07
-8.86614e-05
-5.7338e-06
-9.15102e-05
-1.5023e-07
-9.73997e-05
1.20177e-05
-0.000105226
2.091e-05
-0.000110616
2.2922e-05
-0.00011116
2.11288e-05
-0.0001071
2.00771e-05
-0.000101031
2.08024e-05
-9.33619e-05
2.04745e-05
-8.37889e-05
1.99046e-05
-7.35036e-05
2.10165e-05
-6.17007e-05
2.08742e-05
-4.90622e-05
1.91606e-05
-3.40949e-05
1.80598e-05
-4.54202e-05
4.35726e-05
-4.90344e-05
3.32871e-05
-5.29988e-05
2.76691e-05
3.07994e-05
-4.90285e-05
-1.26621e-05
-9.8974e-05
-2.10828e-05
-8.21076e-05
-2.08786e-05
-3.3255e-05
-5.99211e-05
6.90576e-05
-7.39455e-05
1.37957e-05
-7.79143e-05
-1.765e-06
-7.61899e-05
-1.87461e-06
-8.59123e-05
2.17401e-05
-0.000101309
3.63072e-05
-0.000110912
3.25243e-05
-0.00011084
2.10568e-05
-0.000105001
1.42382e-05
-9.58703e-05
1.16715e-05
-8.54023e-05
1.00064e-05
-6.98221e-05
4.32434e-06
-5.33328e-05
4.52726e-06
-6.2385e-05
2.99268e-05
-6.62335e-05
2.30094e-05
-7.12106e-05
2.30369e-05
-6.22295e-05
3.45917e-05
-5.77033e-05
2.87615e-05
-5.44377e-05
2.44038e-05
2.09605e-05
-4.45991e-05
-9.72802e-06
-8.92459e-05
-1.28314e-05
-7.90042e-05
7.69237e-06
-5.37787e-05
-3.3092e-06
8.00591e-05
-3.54272e-05
4.59138e-05
-4.42036e-05
7.01137e-06
-2.64267e-05
-1.96516e-05
-1.77663e-05
1.30797e-05
-3.27331e-05
5.1274e-05
-4.70442e-05
4.68359e-05
-5.86425e-05
3.26552e-05
-6.74362e-05
2.30319e-05
-7.28385e-05
1.70737e-05
-7.70675e-05
1.42352e-05
-8.56284e-05
1.2885e-05
-9.53665e-05
1.42652e-05
-8.6285e-05
2.08453e-05
-8.16624e-05
1.83871e-05
-7.60883e-05
1.7463e-05
-6.19658e-05
2.04694e-05
-4.84017e-05
1.51978e-05
-3.43978e-05
1.04002e-05
6.91849e-06
-2.03563e-05
-7.3452e-06
-8.19007e-05
-7.89093e-06
-7.84585e-05
7.53954e-06
-6.92092e-05
7.10311e-05
1.65677e-05
5.45725e-05
6.23723e-05
2.15723e-05
4.00117e-05
8.80472e-06
-6.88393e-06
4.89389e-05
-2.70544e-05
0.000112489
-1.22758e-05
7.37134e-05
8.5611e-05
2.78103e-05
7.85588e-05
-1.38689e-05
6.47114e-05
-4.6374e-05
4.95786e-05
-7.06557e-05
3.85167e-05
-8.54348e-05
2.76639e-05
-8.95687e-05
1.83989e-05
-8.12141e-05
1.24906e-05
-6.97725e-05
6.94548e-06
-5.696e-05
4.65054e-06
-4.08108e-05
4.3203e-06
-2.72025e-05
1.5895e-06
-1.6003e-05
-7.99324e-07
-1.90788e-06
-7.17726e-06
-6.52737e-06
-7.53733e-05
-8.92337e-06
-7.60625e-05
-8.63695e-06
-6.94956e-05
5.55187e-05
-4.75879e-05
0.000114404
3.48726e-06
7.68359e-05
7.75799e-05
4.16467e-05
2.83054e-05
3.57243e-05
-2.11319e-05
5.63872e-05
-3.29391e-05
7.52692e-05
6.67256e-05
3.91862e-05
0.000114642
-4.72769e-06
0.000108626
-3.67512e-05
8.16018e-05
-5.8282e-05
6.00473e-05
-6.82938e-05
3.76755e-05
-6.68878e-05
1.69926e-05
-5.69014e-05
2.5039e-06
-4.62272e-05
-3.72893e-06
-3.58087e-05
-5.76812e-06
-2.50793e-05
-6.40912e-06
-1.62671e-05
-7.22282e-06
-9.36651e-06
-7.70006e-06
-7.46275e-06
-3.81209e-06
-5.03993e-06
-7.03335e-05
-5.45325e-06
-7.56492e-05
-2.48724e-06
-7.24616e-05
1.44514e-05
-6.45265e-05
5.57529e-05
-3.78144e-05
0.000122017
1.13159e-05
0.000116857
3.34654e-05
8.87356e-05
6.98968e-06
0.00012465
-6.88571e-05
9.40286e-05
9.73445e-05
4.72863e-05
0.000161384
2.03464e-06
0.000153879
-2.70271e-05
0.000110663
-4.44232e-05
7.74432e-05
-5.04074e-05
4.36594e-05
-4.5828e-05
1.2413e-05
-3.86011e-05
-4.72321e-06
-3.1938e-05
-1.03922e-05
-2.47699e-05
-1.29364e-05
-1.76272e-05
-1.35519e-05
-1.14471e-05
-1.3403e-05
-6.36942e-06
-1.27778e-05
-1.16809e-05
-2.1519e-06
-2.67707e-06
-6.76564e-05
1.75296e-07
-7.85016e-05
4.47985e-06
-7.67662e-05
1.02492e-05
-7.02958e-05
3.51699e-05
-6.2735e-05
7.27906e-05
-2.63047e-05
0.000116431
-1.01749e-05
0.000145996
-2.2577e-05
0.000113695
-3.656e-05
7.88143e-05
0.000132224
2.27225e-05
0.000217479
-7.77117e-07
0.000177379
-2.1428e-05
0.000131314
-3.21202e-05
8.81352e-05
-3.28548e-05
4.43938e-05
-2.84365e-05
7.99447e-06
-2.53794e-05
-7.78043e-06
-2.0922e-05
-1.48498e-05
-1.61993e-05
-1.76592e-05
-1.16246e-05
-1.81266e-05
-7.582e-06
-1.74457e-05
-4.12815e-06
-1.62319e-05
-1.46705e-05
-1.13881e-06
5.86921e-07
-6.82435e-05
7.82399e-06
-8.57386e-05
1.5405e-05
-8.43471e-05
2.16995e-05
-7.65903e-05
3.17752e-05
-7.28107e-05
6.23679e-05
-5.68974e-05
0.000103172
-5.09793e-05
0.000158059
-7.74641e-05
8.92119e-05
3.22861e-05
3.58957e-05
0.00018554
1.56696e-06
0.000251809
-1.18193e-05
0.000190766
-2.13148e-05
0.00014081
-2.46049e-05
9.14251e-05
-2.07443e-05
4.05331e-05
-1.72422e-05
4.49229e-06
-1.48124e-05
-1.02103e-05
-1.21228e-05
-1.75395e-05
-9.41006e-06
-2.03719e-05
-6.80171e-06
-2.0735e-05
-4.44041e-06
-1.98071e-05
-2.3513e-06
-1.8321e-05
-1.65671e-05
-4.55217e-07
5.48604e-06
-7.37294e-05
1.64623e-05
-9.67148e-05
2.80815e-05
-9.59664e-05
3.98445e-05
-8.83531e-05
5.42926e-05
-8.72586e-05
7.97203e-05
-8.23249e-05
0.000123338
-9.45965e-05
8.34363e-05
-3.75643e-05
-6.19441e-06
0.000121913
-5.69351e-05
0.000236283
-3.74303e-05
0.000232308
-3.06163e-05
0.000183952
-2.52499e-05
0.000135443
-1.72474e-05
8.34226e-05
-9.41108e-06
3.26967e-05
-7.80981e-06
2.89097e-06
-6.56004e-06
-1.14601e-05
-5.34474e-06
-1.87549e-05
-4.16141e-06
-2.15553e-05
-2.99273e-06
-2.19037e-05
-1.88141e-06
-2.09184e-05
-8.31469e-07
-1.93712e-05
-1.7565e-05
1.66231e-07
1.0937e-05
-8.46661e-05
2.30905e-05
-0.000108868
3.6562e-05
-0.000109438
4.96153e-05
-0.000101406
7.09101e-05
-0.000108553
9.14699e-05
-0.000102884
1.06597e-05
-1.37865e-05
-0.000107039
8.01331e-05
-0.000129991
0.000144866
-0.000100051
0.000206345
-6.18118e-05
0.00019407
-4.22517e-05
0.000164393
-2.64915e-05
0.000119683
-1.12653e-05
6.81964e-05
-2.97819e-06
2.44096e-05
-1.47109e-06
1.38387e-06
-6.55487e-07
-1.22757e-05
-3.01965e-07
-1.91084e-05
-6.20179e-08
-2.17952e-05
1.30003e-07
-2.20957e-05
3.35043e-07
-2.11235e-05
5.44321e-07
-1.95803e-05
-1.78272e-05
8.06192e-07
1.49391e-05
-9.96051e-05
2.65635e-05
-0.000120492
4.05847e-05
-0.000123459
6.92265e-05
-0.000130047
5.61705e-05
-9.54966e-05
-1.92428e-05
-2.74714e-05
-0.000102058
6.90278e-05
-0.000124883
0.000102958
-0.000122738
0.000142723
-9.12536e-05
0.000174862
-6.50706e-05
0.000167888
-4.28099e-05
0.000142132
-2.24673e-05
9.93408e-05
-5.69653e-06
5.14257e-05
8.46355e-07
1.78667e-05
3.36731e-06
-1.13702e-06
3.94343e-06
-1.28517e-05
3.73231e-06
-1.88972e-05
3.23833e-06
-2.13012e-05
2.68846e-06
-2.15458e-05
2.19473e-06
-2.06297e-05
1.79618e-06
-1.9182e-05
-1.75514e-05
1.52045e-06
1.63742e-05
-0.000115979
2.90838e-05
-0.000133202
4.26551e-05
-0.00013703
3.16989e-05
-0.00011909
-2.15516e-05
-4.22459e-05
-9.36118e-05
4.45882e-05
-0.000105545
8.09613e-05
-0.000110603
0.000108017
-0.0001047
0.000136821
-8.22955e-05
0.000152458
-6.0476e-05
0.000146069
-3.73063e-05
0.000118963
-1.52871e-05
7.73218e-05
-7.24642e-07
3.68633e-05
4.85035e-06
1.22918e-05
7.1806e-06
-3.46715e-06
7.48117e-06
-1.31522e-05
6.83278e-06
-1.82487e-05
5.81825e-06
-2.02866e-05
4.73968e-06
-2.04671e-05
3.75282e-06
-1.9643e-05
2.92052e-06
-1.83494e-05
-1.68888e-05
2.25759e-06
1.61107e-05
-0.000132089
2.86187e-05
-0.000145709
2.47194e-05
-0.000133128
-8.93919e-06
-8.54311e-05
-6.80843e-05
1.68977e-05
-8.66637e-05
6.31677e-05
-9.79968e-05
9.22945e-05
-0.000100655
0.000110675
-9.02208e-05
0.000126387
-7.25309e-05
0.000134769
-5.17302e-05
0.000125268
-2.84009e-05
9.5634e-05
-7.65371e-06
5.65748e-05
3.43975e-06
2.577e-05
8.28908e-06
7.4427e-06
1.01111e-05
-5.28901e-06
1.00861e-05
-1.3127e-05
9.11361e-06
-1.72761e-05
7.75424e-06
-1.89271e-05
6.33524e-06
-1.9048e-05
5.02802e-06
-1.83356e-05
3.90701e-06
-1.72287e-05
-1.59759e-05
2.99427e-06
1.51892e-05
-0.000147279
3.32823e-05
-0.000163804
1.88079e-05
-0.000118653
-1.79315e-05
-4.86916e-05
-6.03599e-05
5.93259e-05
-8.09934e-05
8.38012e-05
-8.898e-05
0.000100281
-8.78854e-05
0.000109581
-7.81259e-05
0.000116628
-6.19339e-05
0.000118577
-4.09551e-05
0.00010429
-1.82204e-05
7.28996e-05
-1.1636e-06
3.95183e-05
6.98005e-06
1.76267e-05
1.09375e-05
3.48549e-06
1.22481e-05
-6.59938e-06
1.19201e-05
-1.27988e-05
1.0712e-05
-1.60678e-05
9.13701e-06
-1.73519e-05
7.51447e-06
-1.74254e-05
6.02169e-06
-1.68429e-05
4.73363e-06
-1.59402e-05
-1.49062e-05
3.66389e-06
1.65999e-05
-0.000163883
2.04927e-05
-0.000167703
1.30274e-05
-0.000111189
-1.53321e-05
-2.03325e-05
-5.76352e-05
0.000101629
-7.50637e-05
0.00010123
-7.95216e-05
0.000104739
-7.63708e-05
0.00010643
-6.65805e-05
0.000106838
-5.02541e-05
0.000102251
-2.91478e-05
8.31841e-05
-8.81429e-06
5.25665e-05
3.65625e-06
2.70482e-05
9.82169e-06
1.14616e-05
1.28933e-05
4.14235e-07
1.37203e-05
-7.4261e-06
1.31227e-05
-1.22009e-05
1.17462e-05
-1.46911e-05
1.00519e-05
-1.56574e-05
8.33729e-06
-1.57107e-05
6.76146e-06
-1.52668e-05
5.39301e-06
-1.45719e-05
-1.37627e-05
4.25007e-06
1.35042e-05
-0.000177393
1.51427e-06
-0.000155718
-2.6352e-05
-8.33253e-05
-5.54973e-05
8.81238e-06
-6.63017e-05
0.000112433
-7.2671e-05
0.000107599
-7.19686e-05
0.000104037
-6.62202e-05
0.000100682
-5.5117e-05
9.57353e-05
-3.80997e-05
8.52339e-05
-1.77134e-05
6.27982e-05
-1.51958e-06
3.63731e-05
7.24727e-06
1.82818e-05
1.19876e-05
6.72166e-06
1.42521e-05
-1.84985e-06
1.46323e-05
-7.80593e-06
1.38014e-05
-1.13697e-05
1.23151e-05
-1.32045e-05
1.05789e-05
-1.3921e-05
8.85009e-06
-1.39817e-05
7.26727e-06
-1.36839e-05
5.88571e-06
-1.31898e-05
-1.25913e-05
4.7144e-06
-9.4184e-06
-0.000167977
-3.9947e-05
-0.000125191
-7.00729e-05
-5.31999e-05
-8.96722e-05
2.84115e-05
-7.95267e-05
0.000102287
-7.31165e-05
0.000101189
-6.62579e-05
9.71782e-05
-5.70866e-05
9.15108e-05
-4.39887e-05
8.26376e-05
-2.64004e-05
6.7646e-05
-8.42845e-06
4.48267e-05
3.3858e-06
2.45593e-05
9.8743e-06
1.17938e-05
1.35206e-05
3.07581e-06
1.50821e-05
-3.41087e-06
1.50625e-05
-7.78602e-06
1.4045e-05
-1.03519e-05
1.25077e-05
-1.16669e-05
1.07942e-05
-1.22072e-05
9.11581e-06
-1.23032e-05
7.57783e-06
-1.21457e-05
6.22222e-06
-1.18344e-05
-1.1429e-05
5.06055e-06
-2.98233e-05
-0.000138153
-6.62914e-05
-8.87229e-05
-9.05686e-05
-2.89227e-05
-0.000100823
3.86656e-05
-8.53658e-05
8.683e-05
-7.24188e-05
8.82418e-05
-6.08308e-05
8.55904e-05
-4.84058e-05
7.90861e-05
-3.34286e-05
6.76607e-05
-1.61647e-05
5.03825e-05
-1.73436e-06
3.03969e-05
6.74998e-06
1.60755e-05
1.17493e-05
6.79493e-06
1.44803e-05
3.45385e-07
1.54337e-05
-4.36389e-06
1.50821e-05
-7.43399e-06
1.39397e-05
-9.2092e-06
1.24108e-05
-1.01376e-05
1.07709e-05
-1.0567e-05
9.18004e-06
-1.07122e-05
7.71895e-06
-1.06845e-05
6.4176e-06
-1.05324e-05
-1.02902e-05
5.27908e-06
-3.62857e-05
-0.000101867
-6.80923e-05
-5.69157e-05
-8.83436e-05
-8.67101e-06
-9.33615e-05
4.36836e-05
-8.07177e-05
7.41864e-05
-6.71379e-05
7.46621e-05
-5.37056e-05
7.21582e-05
-3.93674e-05
6.47481e-05
-2.35314e-05
5.1825e-05
-7.92719e-06
3.47786e-05
2.88795e-06
1.95822e-05
9.24993e-06
9.71397e-06
1.30493e-05
2.99605e-06
1.49712e-05
-1.57603e-06
1.53926e-05
-4.78489e-06
1.47829e-05
-6.8239e-06
1.35806e-05
-8.0065e-06
1.21098e-05
-8.6665e-06
1.0577e-05
-9.03395e-06
9.09777e-06
-9.23274e-06
7.72624e-06
-9.31265e-06
6.48671e-06
-9.29298e-06
-9.19117e-06
5.38842e-06
-3.30852e-05
-6.87805e-05
-5.99728e-05
-3.00272e-05
-7.93076e-05
1.06644e-05
-8.0913e-05
4.52893e-05
-7.01768e-05
6.34505e-05
-5.78301e-05
6.23155e-05
-4.42386e-05
5.8567e-05
-2.94417e-05
4.99514e-05
-1.42487e-05
3.66324e-05
-1.58664e-06
2.21169e-05
6.34058e-06
1.16554e-05
1.11774e-05
4.87765e-06
1.39104e-05
2.6349e-07
1.50645e-05
-2.72973e-06
1.5047e-05
-4.76696e-06
1.42612e-05
-6.03774e-06
1.30597e-05
-6.80458e-06
1.16818e-05
-7.28834e-06
1.02709e-05
-7.62274e-06
8.9043e-06
-7.86596e-06
7.62453e-06
-8.03281e-06
6.45175e-06
-8.11959e-06
-8.13146e-06
5.39235e-06
-2.77406e-05
-4.10392e-05
-5.09876e-05
-6.77954e-06
-6.50734e-05
2.47507e-05
-6.59639e-05
4.61802e-05
-5.70317e-05
5.45186e-05
-4.60297e-05
5.13136e-05
-3.29069e-05
4.54444e-05
-1.87589e-05
3.58036e-05
-5.54952e-06
2.34233e-05
3.69898e-06
1.28687e-05
9.2778e-06
6.07693e-06
1.26563e-05
1.4995e-06
1.4363e-05
-1.4428e-06
1.48603e-05
-3.22657e-06
1.45022e-05
-4.4085e-06
1.36178e-05
-5.15299e-06
1.24599e-05
-5.64636e-06
1.11892e-05
-6.01735e-06
9.89816e-06
-6.33142e-06
8.63912e-06
-6.60674e-06
7.44251e-06
-6.83594e-06
6.32761e-06
-7.00487e-06
-7.1102e-06
5.30694e-06
-2.12344e-05
-1.98037e-05
-3.98242e-05
1.1811e-05
-5.0134e-05
3.50611e-05
-5.01889e-05
4.62355e-05
-4.25344e-05
4.68644e-05
-3.2591e-05
4.13704e-05
-2.04429e-05
3.32966e-05
-8.01504e-06
2.33759e-05
1.82682e-06
1.35816e-05
7.90515e-06
6.79065e-06
1.16341e-05
2.3483e-06
1.36677e-05
-5.33794e-07
1.44545e-05
-2.22927e-06
1.44341e-05
-3.20575e-06
1.38471e-05
-3.82115e-06
1.29289e-05
-4.23447e-06
1.18389e-05
-4.55608e-06
1.06736e-05
-4.85175e-06
9.4891e-06
-5.14666e-06
8.32086e-06
-5.43838e-06
7.19711e-06
-5.71213e-06
6.13583e-06
-5.94296e-06
-6.11782e-06
5.14383e-06
-1.68779e-05
-2.92541e-06
-2.92686e-05
2.42021e-05
-3.59309e-05
4.17238e-05
-3.46851e-05
4.499e-05
-2.76304e-05
3.981e-05
-1.84299e-05
3.21701e-05
-7.91165e-06
2.27785e-05
1.37019e-06
1.40942e-05
7.48637e-06
7.46559e-06
1.12107e-05
3.06649e-06
1.33168e-05
2.42483e-07
1.4212e-05
-1.42882e-06
1.42953e-05
-2.31225e-06
1.38976e-05
-2.80775e-06
1.31629e-05
-3.08617e-06
1.22483e-05
-3.31958e-06
1.1231e-05
-3.53846e-06
1.0159e-05
-3.77951e-06
9.06321e-06
-4.05063e-06
7.97114e-06
-4.34614e-06
6.90459e-06
-4.64524e-06
5.88313e-06
-4.92159e-06
-5.15296e-06
4.91901e-06
-1.23603e-05
9.43554e-06
-1.98146e-05
3.16567e-05
-2.3328e-05
4.52376e-05
-2.00826e-05
4.17448e-05
-1.32697e-05
3.29972e-05
-4.80824e-06
2.37088e-05
2.7446e-06
1.52257e-05
8.202e-06
8.63694e-06
1.1599e-05
4.06867e-06
1.35186e-05
1.14699e-06
1.43271e-05
-5.65794e-07
1.43718e-05
-1.47333e-06
1.39761e-05
-1.91632e-06
1.33074e-05
-2.13886e-06
1.25077e-05
-2.28616e-06
1.16068e-05
-2.41847e-06
1.0653e-05
-2.58442e-06
9.65648e-06
-2.78272e-06
8.63114e-06
-3.02506e-06
7.59612e-06
-3.31097e-06
6.57579e-06
-3.62481e-06
5.58865e-06
-3.93384e-06
-4.20718e-06
4.64329e-06
-7.77517e-06
1.72106e-05
-1.16068e-05
3.54884e-05
-1.21505e-05
4.57815e-05
-6.84319e-06
3.64377e-05
-6.95319e-07
2.68495e-05
5.42152e-06
1.75921e-05
9.88858e-06
1.07587e-05
1.27449e-05
5.78065e-06
1.42915e-05
2.52219e-06
1.48586e-05
5.79951e-07
1.47601e-05
-4.67208e-07
1.4253e-05
-9.66081e-07
1.35504e-05
-1.21357e-06
1.27354e-05
-1.3237e-06
1.18881e-05
-1.43863e-06
1.10185e-05
-1.54869e-06
1.01065e-05
-1.67218e-06
9.16692e-06
-1.84288e-06
8.19596e-06
-2.05389e-06
7.20633e-06
-2.32116e-06
6.21863e-06
-2.6368e-06
5.25256e-06
-2.96785e-06
-3.27636e-06
4.3224e-06
-4.37783e-06
2.15887e-05
-4.9512e-06
3.60619e-05
-2.04131e-06
4.28717e-05
3.5991e-06
3.07974e-05
8.46213e-06
2.19866e-05
1.19815e-05
1.40728e-05
1.42892e-05
8.45102e-06
1.54323e-05
4.63759e-06
1.56972e-05
2.25729e-06
1.53802e-05
8.96984e-07
1.47294e-05
1.83612e-07
1.39302e-05
-1.66776e-07
1.30656e-05
-3.48863e-07
1.22055e-05
-4.63396e-07
1.13257e-05
-5.58712e-07
1.04596e-05
-6.82426e-07
9.59146e-06
-8.03804e-07
8.68524e-06
-9.3645e-07
7.75661e-06
-1.12505e-06
6.80064e-06
-1.36505e-06
5.83756e-06
-1.67358e-06
4.89017e-06
-2.01981e-06
-2.35101e-06
3.96529e-06
-1.89482e-06
2.34833e-05
8.88869e-08
3.40782e-05
5.5657e-06
3.73949e-05
1.01415e-05
2.62216e-05
1.36302e-05
1.84979e-05
1.56125e-05
1.20905e-05
1.65033e-05
7.56019e-06
1.65608e-05
4.58011e-06
1.60757e-05
2.74237e-06
1.52965e-05
1.67621e-06
1.43957e-05
1.08441e-06
1.3472e-05
7.57032e-07
1.25624e-05
5.60861e-07
1.16759e-05
4.23209e-07
1.08114e-05
3.05935e-07
9.94307e-06
1.86014e-07
9.07704e-06