/*--------------------------------*- C++ -*----------------------------------*\
| =========                 |                                                 |
| \\      /  F ield         | OpenFOAM: The Open Source CFD Toolbox           |
|  \\    /   O peration     | Version:  2312                                  |
|   \\  /    A nd           | Website:  www.openfoam.com                      |
|    \\/     M anipulation  |                                                 |
\*---------------------------------------------------------------------------*/
FoamFile
{
    version     2.0;
    format      ascii;
    arch        "LSB;label=32;scalar=64";
    class       volScalarField;
    location    "1.85";
    object      alphas;
}
// * * * * * * * * * * * * * * * * * * * * * * * * * * * * * * * * * * * * * //

dimensions      [0 0 0 0 0 0 0];

internalField   nonuniform List<scalar> 
2268
(
2
2
2
2
2
2
2
2
2
2
2
2
2
2
2
2
2
2
2
2
2
1.99995
1.99994
2
2
2
2
2
2
2
2
2
2
2
2
2
2
2
2
2
2
2
2
2
1.99998
1.99995
2
2
2
2
2
2
2
2
2
2
2
2
2
2
2
2
2
2
2
2
2
2
2
2
2
2
2
2
2
2
2
2
2
2
2
2
2
2
2
2
2
2
2
2
2
2
1.95824
1.95171
1.9634
2
1.99998
2
2.00001
2.00002
2
2
2
2
2
2
2
2
2
2
1.99999
1.9964
1.96672
1.92367
1.88495
1.31084
1.24632
1.20957
1.31788
1.4355
1.54864
1.65596
1.78729
1.94151
1.9998
1.9999
1.99998
2
2
2
1.99494
1.90428
1.68523
1.3888
1.03863
0.764797
0.59703
0.514625
0.997913
0.772256
0.117119
0.0707675
0.110542
0.165349
0.255119
0.431951
0.802917
1.33922
1.74466
1.88434
1.89492
1.7797
1.49992
1.00925
0.505528
0.196713
0.0407789
0.00776907
0.00554836
0.01169
0.0140509
1.0128
0.865503
0.0338317
0.00592644
0.0034652
0.00348898
0.00318278
0.00171283
0.00166998
0.0658121
0.289604
0.481971
0.510333
0.33229
0.097721
0.00166554
0.00214671
0.00243538
0.00525576
0.0094283
0.0107014
0.00941835
0.0177886
1.74123
1.824
1.87827
1.87849
1.87714
1.88336
1.89652
1.91831
1.92189
1.91967
1.91336
1.92019
1.92201
1.92901
1.93098
1.9317
1.9317
1.93172
1.93744
1.74449
1.78321
1.73175
1.77441
1.74038
1.7024
1.62211
1.49558
1.41571
1.4563
1.64121
1.59322
1.55747
1.59599
1.66246
1.77788
1.86118
1.9462
1.94517
1.55068
1.39101
1.38763
1.42974
1.45261
1.46066
1.40069
1.06871
0.976425
1.03982
1.05698
1.30434
1.42015
1.51173
1.54671
1.45053
1.38162
1.5039
1.85514
1.2294
0.680294
0.611659
0.845503
1.03971
1.08763
1.25947
1.27863
1.23302
1.09284
1.09949
1.20639
1.14949
1.47543
1.46665
1.34398
1.12279
1.00889
1.37467
0.521131
0.286074
0.286211
0.339134
0.386167
0.548756
0.888945
1.16633
1.11455
1.13948
1.00136
0.864767
1.15588
1.3635
0.858942
0.568323
0.265761
0.203618
0.631411
0.365819
0.591457
0.82718
0.739572
0.470094
0.424168
0.59968
1.07616
1.08054
0.987395
0.463172
0.20082
0.359339
0.965402
0.530676
0.220649
0.108313
0.105158
0.405593
0.444502
0.844873
1.13533
1.17293
0.634325
0.40755
0.771859
1.07305
1.0524
0.544955
0.0340438
4.89924e-05
0.0625977
0.378894
0.328813
0.130488
0.111663
0.11152
0.110325
0.857989
0.969891
0.966783
0.466297
0.248331
0.390341
0.9642
1.07919
0.881879
0.0505563
6.87863e-05
8.49852e-05
0.0123964
0.184303
0.377158
0.120065
0.121804
0.112567
0.107172
1.19276
1.0138
0.685624
0.203734
0.0738846
0.0426545
0.0392546
0.0139832
0.000793114
0.000567777
0.00105158
0.00126984
0.00109848
0.00114053
0.00149177
0.00193605
0.00633689
0.0084461
0.0188763
0.0332778
0.051527
0.0501233
0.0381928
1.31235
1.08221
1.02675
0.931477
0.864861
0.751506
0.614722
0.262172
0.172739
0.0290347
0.0229573
0.015465
0.030215
0.0452665
0.0659979
0.131502
0.265748
0.42624
0.585843
0.632552
0.578176
0.525285
0.465397
1.197
1.01706
1.01711
1.0053
1.03676
1.04685
1.01423
1.12052
1.19652
0.927309
0.687058
0.508669
0.464728
0.529076
0.683235
0.85434
0.985192
1.05487
1.05532
1.04529
1.0363
1.03005
1.04468
1.0495
1.30763
1.00715
1.00578
1.01334
1.06823
1.06801
1.06717
1.06996
1.09566
1.22471
1.23354
1.13085
1.0504
1.05024
1.05027
1.05171
1.10756
1.1748
1.22636
1.24448
1.21121
1.1447
1.0495
1.56103
1.01335
1.17438
1.1401
1.0006
1.00006
1.00009
1.00015
1.0002
1.00249
1.00404
1.01437
1.08286
1.26899
1.61535
2.06589
2.40044
2.57611
2.66336
2.6962
2.6493
2.51514
1.04948
1.49577
1.4651
1.56943
1.50602
1.02543
0.999949
1.00078
1.00972
1.01521
1.06306
1.28448
1.83205
2.43195
2.83917
2.99701
2.99548
2.99403
2.99484
2.98835
2.97922
2.98702
2.99824
1.20203
1.20091
1.73196
1.52546
1.45525
1.45877
1.42357
1.28377
1.28498
1.58098
2.27466
2.90832
2.98949
2.99841
2.99993
3
3
3
3
3
2.99968
2.99975
2.9998
2.39518
2.20163
2.09296
2.16375
2.34025
2.55973
2.6222
2.44354
2.36474
2.47217
2.7989
2.98321
2.99694
2.99988
2.99994
3
3
3
3
3
2.99977
2.99916
2.99965
2.99987
2.99995
2.99998
2.99998
2.99996
2.99999
2.99997
2.99979
2.99885
2.99442
2.99284
2.99708
2.99953
2.9996
2.9999
3
3
3
3
2.99994
2.99905
2.99875
2.99908
2.99992
2.99998
2.99999
2.99999
3
2.99999
2.99999
3
3
2.99997
2.99977
2.9995
2.99952
2.99963
2.99999
3
3
3
3
2.99971
2.99871
2.99872
2.99937
2.99999
2.99999
2.99999
2.99999
2.99999
2.99999
2.99999
3
3
3
2.99999
2.99998
2.99996
2.99998
3
3
3
3
3
2.9996
2.99871
2.9989
2.99948
3
3
2.99999
2.99999
3
3
3
3
3
3
3
3
3
3
3
3
3
3
3
2.99973
2.99927
2.99936
2.99871
3
3
3
3
3
3
3
3
3
3
3
3
3
3
3
3
3
3
2.99999
2.99995
2.99998
2.99969
2.99885
3
3
3
3
3
3
3
3
3
3
3
3
3
3
3
3
3
3
3
3
2.99998
2.99961
2.99922
3
3
3
3
3
3
3
3
3
3
3
3
3
3
3
3
3
3
3
3
2.99999
2.99974
2.99936
3
3
3
3
3
3
3
3
3
3
3
3
3
3
3
3
3
3
3
3
3
2.99998
2.99965
3
3
3
3
3
3
3
3
3
3
3
3
3
3
3
3
3
3
3
3
3
3
2.99997
3
3
3
3
3
3
3
3
3
3
3
3
3
3
3
3
3
3
3
3
3
3
3
3
3
3
3
3
3
3
3
3
3
3
3
3
3
3
3
3
3
3
3
3
3
3
3
3
3
3
3
3
3
3
3
3
3
3
3
3
3
3
3
3
3
3
3
3
3
3
3
3
3
3
3
3
3
3
3
3
3
3
3
3
3
3
3
3
3
3
3
3
3
3
3
3
3
3
3
3
3
3
3
3
3
3
3
3
3
3
3
3
3
3
3
3
3
3
3
3
3
3
3
3
3
3
3
3
3
3
3
3
3
3
3
3
3
3
3
3
3
3
3
3
3
3
3
3
3
3
3
3
3
3
3
3
3
3
3
3
3
3
3
3
3
3
3
3
3
3
3
3
3
3
3
3
3
3
3
3
3
3
3
3
3
3
3
3
3
3
3
3
3
3
3
3
3
3
3
3
3
3
3
3
3
3
3
3
3
3
3
3
3
3
3
3
3
3
3
3
3
3
3
3
3
3
3
3
3
3
3
3
3
3
3
3
3
3
3
3
3
3
3
3
3
3
3
3
3
3
3
3
3
3
3
3
3
3
3
3
3
3
3
3
3
3
3
3
3
3
3
3
3
3
3
3
3
3
2.99999
2.99999
3
3
3
3
3
3
3
3
3
3
3
3
3
3
3
3
3
3
3
3
3
2.99999
2.99999
2.99999
3
3
3
3
3
3
3
3
3
3
3
3
3
3
3
3
3
3
2.99996
2.99999
2.99998
2.99999
3
3
3
3
3
3
3
3
3
3
3
3
3
3
3
3
3
3
3
2.99994
2.99994
2.99998
3
3
3
3
3
3
3
3
3
3
3
3
3
3
3
3
3
3
3
3
2.99994
2.99994
2.99999
3
3
3
3
3
3
3
3
3
3
3
3
3
3
3
3
3
3
3
3
2.99994
2.99998
3
3
3
3
3
3
3
3
3
3
3
3
3
3
3
3
3
3
3
3
3
2.99994
3
3
3
3
3
3
3
3
3
3
3
3
3
3
3
3
3
3
3
3
3
3
2.99994
2.99998
3
3
3
3
3
3
3
3
3
3
3
3
3
3
3
3
3
3
3
3
3
2.99999
2.99994
2.99995
2.99996
2.99997
2.99999
3
3
3
3
3
3
3
3
3
3
3
3
3
3
3
3
3
3
2.99995
2.99992
2.99992
2.99993
2.99999
3
3
3
3
3
3
3
3
3
3
3
3
3
3
3
3
3
3
2.99999
2.99996
2.99996
2.99998
3
3
3
3
3
3
3
3
3
3
3
3
3
3
3
3
3
3
3
3
3
3
3
3
3
3
3
3
3
3
3
3
3
3
3
3
3
3
3
3
3
3
3
3
3
3
3
3
3
3
3
3
3
3
3
3
3
3
3
3
3
3
3
3
0.0586025
0.071875
0.177275
0.186819
0.408099
0.392256
0.371946
0.244955
1.10693
1.0609
1.06099
0.997025
1.08495
1.08269
1.08229
1.07881
2.37809
2.17892
1.86165
1.51792
2.99969
2.99649
2.9269
2.75055
2.99989
2.99993
2.99982
2.99973
2.99992
2.9999
2.99989
2.99978
2.99987
2.99988
2.99986
2.99474
2.99985
2.99985
2.99985
2.99408
2.99984
2.99985
2.99985
2.99308
2.99877
2.99963
2.99982
2.99777
2.99852
2.99852
2.999
2.99891
2.99853
2.99842
2.99843
2.99845
2.99941
2.99914
2.99886
2.99838
2.9995
2.99967
2.99978
2.99944
2.9997
2.99981
2.99998
2.99992
2.99999
2.99999
3
3
3
3
3
3
3
3
3
3
3
3
3
3
3
3
3
3
3
3
3
3
3
3
3
3
3
3
3
3
3
3
3
3
3
3
3
3
3
3
3
3
3
3
3
3
3
3
3
3
3
3
3
3
3
3
3
3
3
3
3
3
3
3
3
3
3
3
3
3
3
3
3
3
3
3
3
3
3
3
3
3
3
3
3
3
3
3
3
3
3
3
3
3
3
3
3
3
0.720269
1.01687
0.76673
0.0431403
0.0388099
0.264655
0.63045
0.817754
0.514644
0.0199852
0.00382765
6.82654e-05
0.0172822
0.381484
0.546679
0.401513
0.553877
0.32568
0.112822
0.636716
1.1129
0.457171
0.00461208
0.00495369
0.00982655
0.0654526
0.168955
0.147188
0.0215368
4.90421e-05
5.36946e-05
5.40118e-05
0.0513834
0.823156
0.921256
0.760839
0.59596
0.178416
0.970341
1.11792
0.814435
0.159463
0.0104152
0.00019837
0.000191003
0.00018919
0.000181532
0.00206491
7.65629e-05
7.39403e-05
0.0135397
0.363552
0.952388
0.878518
0.35992
0.530821
0.756431
0.999333
1.0533
1.07487
0.735044
0.10991
0.0596861
0.0979069
0.0435532
0.000715532
0.00290344
0.00860409
0.0182796
0.144846
0.857081
0.953829
0.764671
0.13866
0.161095
0.809548
1.11055
1.0422
1.10182
1.04988
0.657105
0.466336
0.323896
0.180041
0.0668354
0.063101
0.184707
0.17864
0.118799
0.609963
0.847929
0.49543
0.155374
0.155602
0.796711
2.14615
1.21288
1.12257
1.07896
1.00701
1.01058
1.00003
0.856705
0.605935
0.482987
0.395283
0.285322
0.102308
0.0632016
0.199619
0.374818
0.586422
0.201692
0.774823
2.9511
2.01944
1.1572
1.01004
1.00885
1.00951
1.00933
1.00423
1.0068
1.05787
1.04189
0.746265
0.581372
0.548722
0.924253
1.11783
1.1768
0.305418
0.750134
2.99862
2.64227
1.25741
0.984669
1.00237
1.00995
1.00979
1.0036
1.00073
1.00783
1.03663
1.12773
1.13014
1.10309
1.11243
1.2417
0.898408
0.362587
0.746624
2.93522
2.79763
1.50372
0.977191
1.00517
1.01058
1.00942
1.00067
1.00118
1.005
1.01227
1.03424
1.11002
1.14993
1.24088
1.19052
0.632633
0.539319
0.578923
2.92915
1.98902
0.984386
1.00573
1.00869
1.01129
1.0184
1.02364
1.02268
1.0214
1.01934
1.02825
1.0733
1.18915
1.33675
1.14989
0.921581
0.706048
0.501807
2.9777
2.34697
1.30994
1.23325
1.62814
2.00273
2.12326
2.15673
2.12304
2.04104
1.6918
1.33948
1.14778
1.12859
1.12307
1.1963
1.32274
1.04649
0.641148
2.98196
2.92734
2.94408
2.99021
2.99404
2.98598
2.96936
2.96479
2.96876
2.97221
2.9653
2.65062
2.19126
1.64678
1.32716
1.18435
1.13395
1.08815
0.937293
2.99703
2.99278
2.9933
2.99905
2.99996
2.99998
2.99998
2.99998
2.99999
2.99998
2.99998
2.99836
2.99364
2.98716
2.69982
2.27668
1.77415
1.52846
1.47233
2.9989
2.9998
2.9999
2.99991
2.99995
2.99997
2.99998
2.99998
2.99998
2.9997
2.99925
2.99938
2.99954
2.99984
2.99834
2.99339
2.98973
2.83379
2.66371
2.99844
2.99961
3
3
3
3
2.99999
2.99998
3
2.99956
2.99822
2.99819
2.999
2.99982
2.99994
2.99998
2.99999
2.99999
2.99996
2.99853
2.99901
2.99998
3
3
3
3
3
3
3
2.99869
2.99817
2.99813
2.99868
2.99981
2.99993
2.99996
2.99999
3
2.99948
2.999
2.99933
2.99994
3
3
3
3
3
3
2.99994
2.99898
2.9986
2.99884
2.99969
2.99981
2.99986
2.99998
3
2.99997
2.99925
2.99921
2.99922
2.99966
3
3
3
3
2.99999
2.99996
2.9998
2.99996
2.99998
2.99985
2.99981
2.99986
2.99998
3
3
2.99991
2.9993
2.99922
2.99925
2.99934
2.99958
2.99995
3
2.99998
2.99965
2.99976
2.99999
2.99998
2.99986
2.99986
2.99997
3
3
3
3
2.99995
2.99977
2.99935
2.99935
2.99936
2.99937
2.9994
2.9994
2.99938
2.99971
2.99998
2.99997
2.99987
2.99993
3
3
3
3
3
3
3
2.99996
2.99986
2.99966
2.99965
2.99965
2.99952
2.99963
2.99992
3
3
2.99999
3
3
3
2.99999
3
3
3
3
3
3
3
3
2.99999
2.99994
2.99995
3
3
3
3
3
3
3
2.99999
3
3
3
3
3
3
3
3
3
3
3
3
3
3
3
3
3
3
2.99999
3
3
3
3
3
3
3
3
3
3
3
3
3
3
3
3
3
3
2.99999
3
3
3
3
3
3
3
3
3
3
3
3
3
3
3
3
3
3
2.99999
3
3
3
3
3
3
3
3
3
3
3
3
3
3
3
3
3
2.99998
2.99999
3
3
3
3
3
3
3
3
3
3
3
3
3
3
3
3
2.99999
2.99998
2.99999
3
3
3
3
3
3
3
3
3
3
3
3
3
3
3
3
2.99999
2.99998
2.99999
3
3
3
3
3
3
3
3
3
3
3
3
3
3
3
3
3
2.99998
3
3
3
3
3
3
3
3
3
3
3
3
3
3
3
3
3
3
3
3
3
3
3
3
3
3
3
3
3
3
3
3
3
3
3
3
3
3
3
3
3
3
3
3
3
3
3
3
3
3
3
3
3
3
3
3
3
3
3
3
3
3
3
3
3
3
3
3
3
3
3
3
3
3
3
3
3
3
3
3
3
3
3
3
3
3
3
3
3
3
3
3
3
3
3
3
3
3
3
3
3
3
3
3
3
3
3
3
3
3
3
3
3
3
3
3
3
3
3
3
3
3
3
3
3
3
3
3
3
3
3
3
3
3
3
3
3
3
3
3
3
3
3
3
3
3
3
3
3
3
3
3
3
3
3
3
3
3
3
3
3
3
3
3
3
3
3
3
3
3
3
3
3
3
3
3
3
3
3
3
3
3
3
3
3
3
3
3
3
3
3
3
3
3
3
3
3
3
3
3
3
3
3
3
3
3
3
3
3
3
3
3
3
3
3
3
3
3
3
3
3
3
3
3
3
3
3
3
3
3
3
3
3
3
3
3
3
3
3
3
3
3
3
3
3
3
3
3
)
;

boundaryField
{
    leftWall
    {
        type            calculated;
        value           nonuniform List<scalar> 
50
(
2
2
2
2
1.95824
1.31084
0.997913
1.0128
1.19276
1.31235
1.197
1.0495
1.0495
1.04948
1.20203
2.39518
2.99987
2.99992
2.99999
3
3
3
3
3
3
3
3
3
3
3
3
3
3
3
3
3
3
3
3
2.99996
2.99994
2.99994
2.99994
2.99994
2.99994
2.99999
3
3
3
3
)
;
    }
    rightWall
    {
        type            calculated;
        value           nonuniform List<scalar> 
50
(
1.93744
1.94517
1.85514
1.37467
0.631411
0.405593
0.110325
0.107172
0.112822
0.178416
0.756431
0.809548
0.796711
0.774823
0.750134
0.746624
0.578923
0.501807
0.641148
0.937293
1.47233
2.66371
2.99996
3
3
3
3
3
2.99999
2.99999
2.99999
2.99999
2.99999
2.99999
2.99999
2.99999
3
3
3
3
3
3
3
3
3
3
3
3
3
3
)
;
    }
    lowerWall
    {
        type            calculated;
        value           nonuniform List<scalar> 
62
(
2
2
2
2
2
2
2
2
2
2
2
2
2
2
2
2
2
2
2
2
2
1.99995
1.99994
1.99994
1.99995
2
2
1.88495
0.514625
0.0140509
0.0177886
0.0586025
0.071875
0.177275
0.186819
1.74123
1.74449
1.55068
1.2294
0.521131
0.365819
0.444502
0.857989
1.74123
1.824
1.87827
1.87849
1.87714
1.88336
1.89652
1.91831
1.92189
1.91967
1.91336
1.92019
1.92201
1.92901
1.93098
1.9317
1.9317
1.93172
1.93744
)
;
    }
    atmosphere
    {
        type            calculated;
        value           nonuniform List<scalar> 
46
(
3
3
3
3
3
3
3
3
3
3
3
3
3
3
3
3
3
3
3
3
3
3
3
3
3
3
3
3
3
3
3
3
3
3
3
3
3
3
3
3
3
3
3
3
3
3
)
;
    }
    defaultFaces
    {
        type            empty;
    }
}


// ************************************************************************* //
