/*--------------------------------*- C++ -*----------------------------------*\
| =========                 |                                                 |
| \\      /  F ield         | OpenFOAM: The Open Source CFD Toolbox           |
|  \\    /   O peration     | Version:  2312                                  |
|   \\  /    A nd           | Website:  www.openfoam.com                      |
|    \\/     M anipulation  |                                                 |
\*---------------------------------------------------------------------------*/
FoamFile
{
    version     2.0;
    format      ascii;
    arch        "LSB;label=32;scalar=64";
    class       volScalarField;
    location    "1.85";
    object      p;
}
// * * * * * * * * * * * * * * * * * * * * * * * * * * * * * * * * * * * * * //

dimensions      [1 -1 -2 0 0 0 0];

internalField   nonuniform List<scalar> 
2268
(
4692.05
4705.36
4747.8
4806.63
4882.35
4967.83
5063.58
5169.18
5281.78
5388.35
5470.3
5513.05
5507.83
5454
5357.74
5230.83
5087.46
4941.62
4804.68
4685.01
4589.17
4520.88
4487.3
3890.11
3903.15
3945.77
4006.07
4082.18
4167.83
4263.99
4371.01
4486.72
4597.3
4682.83
4727.1
4722.04
4666.64
4567.64
4437.48
4290.95
4142.54
4003.68
3882.44
3785.37
3716.37
3682.45
3085.9
3099.23
3139.27
3201.09
3277.7
3363.33
3459.91
3569.64
3691.84
3810.5
3901.93
3951.54
3946.95
3888.44
3783.9
3647.17
3494.26
3340.72
3198.17
3074.01
2974.74
2903.91
2869.82
2279.52
2289.94
2327.9
2392.75
2470.01
2554.95
2651.22
2764.48
2896.95
3028.75
3125.61
3186.31
3182.63
3119.71
3006.76
2859.85
2696.98
2535.6
2387.59
2259.13
2156.71
2083.51
2049.15
1475.39
1484.78
1517.39
1581.21
1658.97
1742.46
1837.27
1954.57
2101.23
2253.88
2382.46
2438.75
2433.46
2362.38
2236.55
2075.18
1898.29
1725.9
1570.39
1436.59
1335.08
1266.27
1238.22
811.117
834.088
859.443
892.59
943.593
1000.8
1070.89
1168.77
1311.98
1482.05
1625.27
1695.42
1692.31
1613.39
1473.36
1294.84
1115.74
969.096
858.536
782.493
736.381
713.224
710.6
530.937
546.756
567.176
576.408
594.206
616.158
643.546
680.002
739.017
838.842
948.964
1007.93
1003.39
932.505
819.697
701.966
611.553
558.044
532.197
527.863
532.824
542.055
554.608
482.326
483.505
494.464
504.954
514.162
523.134
530.297
533.187
528.031
528.284
539.733
555.691
548.005
513.919
477.537
461.18
458.931
459.905
461.912
464.611
470.877
481.266
495.317
3095.76
2908.37
2895.52
2929.57
2964.61
3046.32
3175.96
3064.62
2895.42
2731.81
2660.1
2621.62
2595.03
2612.59
2684.27
2822.88
3011.87
3249.62
3473.86
2390.69
2183.91
2203.54
2236.62
2269.1
2355.23
2520.14
2442.03
2282.96
2105.9
2028.64
2012.04
2001.21
2002.55
2036.46
2116.93
2266.78
2500.48
2751.2
1805.4
1674
1731.1
1733.86
1769.03
1848.14
1988.61
1985.92
1865.45
1723.7
1673.77
1661.18
1634.15
1636.9
1660.8
1680.55
1760.28
1897.14
2099.77
1421.65
1403.09
1453.92
1477.93
1506.3
1556.23
1608.66
1624.52
1572.54
1524.27
1496.88
1478.47
1467.73
1472.34
1508.45
1513.13
1550.97
1575.62
1655.75
1170.57
1213.55
1267.48
1324.76
1340.63
1360.5
1369.07
1372.58
1380.24
1399.44
1392.06
1403.63
1419.85
1420.66
1453.15
1453.73
1463.63
1453.39
1447.54
988.808
1008.92
1057.91
1135.19
1166.74
1179.67
1206.15
1239.25
1267.9
1293.52
1325.59
1353.3
1372.24
1377.57
1396.71
1402.65
1406.54
1400.34
1385.3
813.461
813.481
833.898
922.048
965.662
1018.2
1078.62
1123.6
1158.69
1208.49
1262.85
1290.04
1308.92
1314.19
1324.13
1342
1343.9
1343.58
1339.03
667.67
699.281
726.493
776.027
805.247
889.396
975.966
1012.69
1061.9
1142.06
1195.1
1224.27
1242.1
1245.23
1250.31
1276.92
1280.11
1285.77
1286.29
428.514
426.623
421.953
420.708
424.188
429.449
433.654
435.178
428.362
416.504
403.876
393.512
384.695
377.562
371.786
366.49
362.957
361.172
360.744
363.498
372.245
386.485
408.72
353.881
349.274
344.552
330.877
326.593
324.43
322.767
319.074
312.746
302.137
288.224
275.827
266.461
259.188
252.561
245.3
238.878
235.005
233.902
234.913
238.929
253.067
274.956
285.793
272.945
280.199
263.72
262.136
257.377
251.936
241.702
229.477
214.86
199.378
184.105
171.401
161.582
153.079
146.042
141.308
139.195
139.727
143.189
150.796
159.32
178.532
219.271
203.472
212.269
200.242
202.107
200.365
196.801
187.956
174.781
157.276
138.91
122.481
108.477
96.2546
85.4409
75.9656
67.6241
60.772
56.2198
53.9759
54.6847
60.5215
77.0151
154.238
146.247
144.979
132.486
131.371
137.237
136.856
131.134
120.785
106.771
90.9054
75.242
59.2141
43.6019
31.0452
21.9805
15.1762
10.3354
7.90356
7.17257
7.47806
8.48974
9.74405
94.3029
99.3634
89.1736
82.5989
78.7323
80.7289
80.5617
76.9974
70.0108
59.888
45.173
29.0077
17.7228
8.77944
2.5856
0.514742
0.40011
0.511588
0.567678
0.642857
0.958372
1.46588
1.84562
45.2892
52.3645
46.3357
45.1472
40.7625
36.0757
33.6851
31.5854
27.2403
19.9397
7.95051
1.46288
0.208669
0.0763327
0.107137
0.175365
0.173066
0.224559
0.290084
0.339705
0.464014
0.808151
1.28479
8.48317
11.5301
13.4835
12.2669
9.30858
5.9017
5.13608
8.00158
9.25226
7.49899
1.55771
-0.296979
-0.287133
-0.136027
-0.0945305
-0.0304274
0.0154835
0.0713217
0.125407
0.20326
0.366508
0.667328
1.03712
-1.04229
-1.04969
-1.04206
-1.03937
-1.04634
-1.07514
-1.07772
-1.06116
-1.04366
-1.10523
-1.13554
-0.85496
-0.6513
-0.454453
-0.347146
-0.263921
-0.193478
-0.124387
-0.0616823
0.00716987
0.127085
0.35999
0.73295
-1.16851
-1.18255
-1.18393
-1.18563
-1.18587
-1.17186
-1.171
-1.18207
-1.20408
-1.24978
-1.26718
-1.11529
-0.877576
-0.714392
-0.598413
-0.508488
-0.43337
-0.369678
-0.319586
-0.273896
-0.202769
-0.0642919
0.191311
-1.29959
-1.30414
-1.30616
-1.30493
-1.2998
-1.29208
-1.2763
-1.26415
-1.2867
-1.29532
-1.25345
-1.15473
-1.03972
-0.93195
-0.834145
-0.75383
-0.688432
-0.639673
-0.612088
-0.600864
-0.579138
-0.524718
-0.423896
-1.43336
-1.43599
-1.43788
-1.43764
-1.4328
-1.42227
-1.40824
-1.40411
-1.40312
-1.39143
-1.3557
-1.2867
-1.20338
-1.1243
-1.05125
-0.989275
-0.941013
-0.911154
-0.906166
-0.927421
-0.950959
-0.967612
-1.01529
-1.56667
-1.56916
-1.57052
-1.57013
-1.56499
-1.55836
-1.5462
-1.53717
-1.52734
-1.50782
-1.47385
-1.42516
-1.36783
-1.31006
-1.25688
-1.21308
-1.1826
-1.17082
-1.18421
-1.22681
-1.28239
-1.33765
-1.46132
-1.69734
-1.7003
-1.70222
-1.70278
-1.6995
-1.69216
-1.68129
-1.67025
-1.65714
-1.63781
-1.61043
-1.5742
-1.53301
-1.49174
-1.4548
-1.42661
-1.41146
-1.41448
-1.44118
-1.49483
-1.57063
-1.66847
-1.81547
-1.82543
-1.82979
-1.83327
-1.8352
-1.83403
-1.82798
-1.81743
-1.80672
-1.79522
-1.77844
-1.75587
-1.7286
-1.69905
-1.6706
-1.64682
-1.63149
-1.62867
-1.64294
-1.67903
-1.74051
-1.82858
-1.94957
-2.09556
-1.95312
-1.95946
-1.96445
-1.96862
-1.96937
-1.96561
-1.95794
-1.94889
-1.93793
-1.92391
-1.90643
-1.88647
-1.86597
-1.84756
-1.83417
-1.82902
-1.83561
-1.85785
-1.89977
-1.96481
-2.05418
-2.17224
-2.31851
-2.08506
-2.09313
-2.09954
-2.10471
-2.10692
-2.10541
-2.10064
-2.09381
-2.08484
-2.07359
-2.06043
-2.04639
-2.03309
-2.02258
-2.01726
-2.01982
-2.03319
-2.06056
-2.10518
-2.16926
-2.25395
-2.36214
-2.49393
-2.22267
-2.2313
-2.23873
-2.24497
-2.24831
-2.24837
-2.24555
-2.24058
-2.23376
-2.2254
-2.21616
-2.20706
-2.19948
-2.19513
-2.19595
-2.20414
-2.22207
-2.25227
-2.29722
-2.35747
-2.43507
-2.53129
-2.64487
-2.36622
-2.37507
-2.38259
-2.38915
-2.39308
-2.3941
-2.39255
-2.38907
-2.38418
-2.37842
-2.37252
-2.36745
-2.36439
-2.36474
-2.3701
-2.38221
-2.40294
-2.43419
-2.47749
-2.53337
-2.60308
-2.68717
-2.78383
-2.51513
-2.52296
-2.52986
-2.53618
-2.54023
-2.54177
-2.5411
-2.53883
-2.53557
-2.53198
-2.5288
-2.5269
-2.5273
-2.53115
-2.53972
-2.55439
-2.57657
-2.60765
-2.64842
-2.69944
-2.76149
-2.83454
-2.91676
-2.66682
-2.67331
-2.6793
-2.68509
-2.68899
-2.69078
-2.69072
-2.68937
-2.68741
-2.68553
-2.68446
-2.68498
-2.68794
-2.69428
-2.70501
-2.72117
-2.74381
-2.77392
-2.81169
-2.85787
-2.91278
-2.97604
-3.04606
-2.81951
-2.8248
-2.82993
-2.83514
-2.83877
-2.84064
-2.84095
-2.84026
-2.83926
-2.83866
-2.83915
-2.84143
-2.84619
-2.85421
-2.86624
-2.88308
-2.90547
-2.93409
-2.96873
-3.01033
-3.05874
-3.1135
-3.17327
-2.97227
-2.97663
-2.98108
-2.98576
-2.98909
-2.99092
-2.99143
-2.99115
-2.99079
-2.99106
-2.99263
-2.9961
-3.00205
-3.01108
-3.02376
-3.04067
-3.06231
-3.08901
-3.12082
-3.1581
-3.20073
-3.24819
-3.29939
-3.12454
-3.12821
-3.13218
-3.13646
-3.13953
-3.14127
-3.14183
-3.14174
-3.14172
-3.14251
-3.14474
-3.14893
-3.15557
-3.16509
-3.17793
-3.19449
-3.21507
-3.23968
-3.26869
-3.30208
-3.33965
-3.38091
-3.42497
-3.27576
-3.27897
-3.28271
-3.28678
-3.28969
-3.29134
-3.29186
-3.29178
-3.29185
-3.29284
-3.29538
-3.29993
-3.30685
-3.31647
-3.3291
-3.34501
-3.36449
-3.38665
-3.41312
-3.44301
-3.47615
-3.51212
-3.55021
-3.4253
-3.42825
-3.43207
-3.4362
-3.43912
-3.44078
-3.44124
-3.44106
-3.44104
-3.44206
-3.44455
-3.44911
-3.45601
-3.46542
-3.47755
-3.49255
-3.51044
-3.53109
-3.55486
-3.5815
-3.61073
-3.64216
-3.6752
-3.57256
-3.5754
-3.57959
-3.58414
-3.58734
-3.58919
-3.58966
-3.58934
-3.58917
-3.58992
-3.59223
-3.59655
-3.60317
-3.61217
-3.62362
-3.63757
-3.65399
-3.67288
-3.69426
-3.71797
-3.74375
-3.77126
-3.79999
-3.71731
-3.71993
-3.72455
-3.72976
-3.73373
-3.73615
-3.73679
-3.73632
-3.73585
-3.73631
-3.73832
-3.74231
-3.74848
-3.75691
-3.76756
-3.78039
-3.79539
-3.81253
-3.83171
-3.85279
-3.87552
-3.8996
-3.92462
-3.85944
-3.86197
-3.86675
-3.87232
-3.87721
-3.88056
-3.88194
-3.88172
-3.88093
-3.88112
-3.88278
-3.88639
-3.89205
-3.89981
-3.90958
-3.9213
-3.93493
-3.95038
-3.96754
-3.98623
-4.00626
-4.02734
-4.04914
-3.99942
-4.00192
-4.00674
-4.01228
-4.01746
-4.0216
-4.02407
-4.02461
-4.02404
-4.02421
-4.02557
-4.02879
-4.03394
-4.04104
-4.0499
-4.06055
-4.07286
-4.08672
-4.102
-4.11854
-4.13615
-4.1546
-4.17359
-4.13793
-4.14051
-4.14535
-4.15066
-4.1557
-4.16006
-4.16318
-4.16467
-4.16496
-4.1653
-4.16665
-4.16956
-4.17421
-4.18059
-4.18869
-4.19833
-4.20939
-4.22176
-4.23532
-4.2499
-4.26535
-4.28146
-4.29798
-4.27626
-4.27874
-4.28339
-4.28823
-4.29288
-4.2972
-4.30068
-4.30285
-4.30383
-4.30461
-4.30607
-4.30881
-4.31307
-4.31887
-4.32618
-4.33484
-4.34472
-4.3557
-4.36767
-4.38048
-4.39398
-4.40801
-4.42235
-4.4154
-4.41775
-4.42155
-4.42541
-4.42945
-4.43356
-4.43717
-4.43972
-4.44122
-4.44241
-4.44403
-4.44669
-4.45066
-4.45597
-4.46253
-4.47025
-4.47902
-4.48871
-4.49921
-4.51039
-4.52214
-4.5343
-4.5467
-4.5551
-4.55765
-4.55969
-4.56227
-4.56563
-4.56941
-4.57294
-4.57564
-4.57747
-4.579
-4.58076
-4.5834
-4.58714
-4.592
-4.59788
-4.60473
-4.61245
-4.62093
-4.63007
-4.63976
-4.64991
-4.66038
-4.67104
-4.69466
-4.69694
-4.69715
-4.69877
-4.70151
-4.70488
-4.70818
-4.71085
-4.71281
-4.71442
-4.71648
-4.71916
-4.72271
-4.72708
-4.73238
-4.73842
-4.74516
-4.7525
-4.76037
-4.76869
-4.77737
-4.78631
-4.79539
-4.83361
-4.83451
-4.83383
-4.83488
-4.83709
-4.84005
-4.84304
-4.84554
-4.84754
-4.84937
-4.85149
-4.85418
-4.8575
-4.86155
-4.86623
-4.87149
-4.87728
-4.88355
-4.89023
-4.89727
-4.90459
-4.91212
-4.91975
-4.97196
-4.97098
-4.9701
-4.97071
-4.97247
-4.97509
-4.97768
-4.97993
-4.98193
-4.9839
-4.98612
-4.98876
-4.99188
-4.99551
-4.99958
-5.00407
-5.00895
-5.01419
-5.01975
-5.02558
-5.03163
-5.03784
-5.04414
-5.10942
-5.10801
-5.10712
-5.10728
-5.10844
-5.11055
-5.11259
-5.11453
-5.11642
-5.11838
-5.12058
-5.12309
-5.12594
-5.1291
-5.13256
-5.13628
-5.14028
-5.14453
-5.14901
-5.1537
-5.15855
-5.16352
-5.16856
-5.24677
-5.24632
-5.24553
-5.24536
-5.24592
-5.247
-5.24826
-5.24974
-5.25135
-5.25313
-5.25513
-5.25738
-5.25983
-5.26247
-5.26527
-5.26822
-5.27135
-5.27463
-5.27808
-5.28167
-5.28538
-5.28917
-5.29302
-5.38468
-5.38477
-5.3845
-5.38432
-5.38421
-5.38421
-5.38475
-5.38569
-5.38688
-5.38832
-5.38997
-5.39178
-5.39371
-5.39572
-5.39781
-5.39997
-5.40223
-5.40458
-5.40702
-5.40955
-5.41216
-5.41482
-5.41752
-5.52266
-5.52275
-5.52267
-5.52243
-5.52204
-5.52175
-5.52186
-5.52232
-5.52307
-5.52405
-5.52518
-5.52641
-5.52768
-5.52897
-5.53028
-5.53162
-5.53299
-5.53441
-5.53587
-5.53738
-5.53891
-5.54048
-5.54207
-5.66068
-5.66087
-5.66081
-5.66053
-5.6601
-5.65969
-5.65949
-5.65955
-5.65984
-5.66027
-5.66076
-5.66127
-5.66177
-5.66226
-5.66274
-5.66322
-5.6637
-5.66419
-5.66468
-5.66518
-5.66567
-5.66616
-5.66667
433.427
448.239
474.316
520.96
300.278
321.183
347.553
384.178
204.547
225.526
249.931
278.278
102.956
125.177
151.91
180.955
11.755
17.1305
38.1093
67.043
2.01764
2.40171
3.63977
10.2426
1.64505
1.88813
2.27842
3.05204
1.35721
1.69545
2.30481
2.9775
0.998159
1.20025
1.49292
2.07858
0.386345
0.465433
0.517015
0.538641
-0.320294
-0.322989
-0.41576
-0.756689
-1.09973
-1.20307
-1.40159
-1.84824
-1.67364
-1.90104
-2.20337
-2.6547
-2.03254
-2.24158
-2.51325
-2.85914
-2.27314
-2.41515
-2.58839
-2.79101
-2.46008
-2.56325
-2.67339
-2.79638
-2.61007
-2.69093
-2.77209
-2.85607
-2.74136
-2.80528
-2.86935
-2.93467
-2.86363
-2.9162
-2.96865
-3.02161
-2.98367
-3.02755
-3.07108
-3.11481
-3.10255
-3.1395
-3.17598
-3.21246
-3.22117
-3.25242
-3.28321
-3.31392
-3.34014
-3.36665
-3.39274
-3.41875
-3.45973
-3.48228
-3.50449
-3.52662
-3.57998
-3.59923
-3.61821
-3.6371
-3.70078
-3.71729
-3.73358
-3.74978
-3.82205
-3.83626
-3.85029
-3.86423
-3.94369
-3.95597
-3.96809
-3.98013
-4.06566
-4.07628
-4.08678
-4.09719
-4.18791
-4.1971
-4.20619
-4.21521
-4.31039
-4.31834
-4.32621
-4.33402
-4.43307
-4.43994
-4.44675
-4.45351
-4.55593
-4.56185
-4.56772
-4.57355
-4.67894
-4.684
-4.68903
-4.694
-4.8021
-4.8064
-4.81067
-4.81491
-4.92538
-4.92899
-4.93258
-4.93615
-5.04878
-5.05175
-5.05471
-5.05766
-5.17227
-5.17465
-5.17703
-5.17939
-5.29585
-5.29767
-5.2995
-5.30132
-5.41952
-5.4208
-5.4221
-5.42339
-5.54326
-5.54402
-5.5448
-5.54558
-5.66705
-5.66731
-5.66757
-5.66784
555.938
604.579
653.663
684.95
715.877
784.243
860.834
913.529
969.546
1039.54
1091.24
1121.98
1137.73
1147.8
1146.33
1167.59
1183.98
1199.91
1197.3
444.151
499.095
538.149
577.718
622.801
675.281
737.182
807.491
866.864
920.225
963.082
989.44
1000.07
1015.01
1017.3
1037.94
1068.08
1091.2
1073.06
332.098
399.072
428.32
472.782
524.743
580.446
640.944
702.615
757.528
805.304
841.047
862.4
870.597
880.401
896.466
914.068
952.646
978.296
959.71
230.888
304.303
344.343
384.716
433.022
486.806
541.395
595.774
645.032
687.142
720.086
742.681
756.092
771.773
788.687
793.334
825.19
850.686
846.414
120.21
207.538
273.554
320.052
359.414
401.69
444.718
489.225
531.934
569.67
601.45
627.963
654.199
685.308
699.442
695.956
697.459
720.7
725.969
28.3641
104.791
206.585
269.176
308.006
339.461
369.967
401.223
431.54
460.307
486.937
513.071
543.243
577.201
595.807
589.647
580.958
599.598
616.043
5.73244
29.5524
144.607
224.84
265.222
292.131
316.17
339.061
360.112
378.486
395.864
414.708
437.479
458.021
466.924
467.773
473.446
479.335
505.203
4.39614
10.4473
98.3893
189.07
225.333
247.142
265.887
284.837
302.336
317.611
330.067
341.851
354.87
364.78
366.64
369.327
372.976
362.227
389.372
3.33287
19.4215
79.5427
150.954
181.65
198.443
212.577
227.215
240.928
253.965
265.716
276.492
285
289.69
291.302
292.561
282.477
268.169
286.277
0.808605
14.7845
65.3117
104.247
127.949
138.695
145.704
149.668
157.203
168.467
183.199
197.874
208.748
215.659
219.754
218.441
203.887
197.495
216.648
-1.4513
3.36314
24.4982
36.3202
48.5891
55.3444
56.8771
56.6102
59.1926
67.7733
80.9783
100.435
119.586
135.072
147.76
149.525
143.525
144.615
162.533
-2.80082
-3.99588
-2.82489
-0.312147
1.73662
4.97445
6.36321
5.63976
5.56066
8.66587
12.1294
21.2744
36
53.0743
69.8669
80
87.8164
98.1735
105.301
-3.53689
-4.15479
-3.73902
-3.43378
-3.36773
-3.35285
-3.31281
-3.21282
-3.07597
-2.91498
-2.55491
-1.50138
1.75526
7.61283
15.3423
24.6912
33.5359
44.3241
47.008
-3.47327
-3.76107
-3.73444
-3.60631
-3.51231
-3.51052
-3.49531
-3.38461
-3.25454
-3.10738
-2.86828
-2.65294
-2.60808
-2.47082
-1.45746
2.53055
5.76547
10.6875
12.8237
-3.15863
-3.48781
-3.60539
-3.61774
-3.60846
-3.6216
-3.5671
-3.48173
-3.37305
-3.2602
-3.09376
-2.85883
-2.77253
-2.75205
-2.80308
-2.85345
-2.83705
-2.79823
-2.79964
-3.01832
-3.30989
-3.47324
-3.55192
-3.58166
-3.58183
-3.55918
-3.50554
-3.42136
-3.33187
-3.22178
-3.04646
-2.94594
-2.92122
-2.94064
-2.9515
-2.93873
-2.91321
-2.90142
-3.00533
-3.21195
-3.3707
-3.46822
-3.51727
-3.53184
-3.51923
-3.48085
-3.42157
-3.35605
-3.3025
-3.19976
-3.11565
-3.07405
-3.05686
-3.04588
-3.02886
-3.01192
-3.00548
-3.0449
-3.18783
-3.31453
-3.40789
-3.46757
-3.49504
-3.49365
-3.46761
-3.42872
-3.38397
-3.34633
-3.30316
-3.2423
-3.19062
-3.15668
-3.13467
-3.1154
-3.10007
-3.09204
-3.10945
-3.21955
-3.31514
-3.39238
-3.44916
-3.48605
-3.49742
-3.48701
-3.45747
-3.42211
-3.39085
-3.36094
-3.31427
-3.27301
-3.2419
-3.21879
-3.20002
-3.18581
-3.17681
-3.18699
-3.2788
-3.35884
-3.42028
-3.46558
-3.50029
-3.51867
-3.51908
-3.50806
-3.47224
-3.44433
-3.41383
-3.38025
-3.34899
-3.32313
-3.30256
-3.28552
-3.27316
-3.26452
-3.27245
-3.34993
-3.41989
-3.47616
-3.5157
-3.54266
-3.55589
-3.5519
-3.53715
-3.52582
-3.50549
-3.48016
-3.4518
-3.4275
-3.40703
-3.38974
-3.37532
-3.36495
-3.35727
-3.36435
-3.42992
-3.48993
-3.54114
-3.58313
-3.6123
-3.62543
-3.62648
-3.61495
-3.60004
-3.58025
-3.55606
-3.53341
-3.5135
-3.4966
-3.48229
-3.47041
-3.46169
-3.45521
-3.4615
-3.51727
-3.56869
-3.61321
-3.64999
-3.67521
-3.68967
-3.69321
-3.68714
-3.67547
-3.65916
-3.6405
-3.62247
-3.60631
-3.5923
-3.58026
-3.57018
-3.56273
-3.55727
-3.563
-3.61066
-3.6548
-3.69327
-3.72483
-3.74779
-3.76177
-3.76691
-3.76419
-3.75601
-3.74433
-3.73077
-3.71701
-3.70412
-3.69246
-3.68217
-3.67346
-3.66701
-3.66243
-3.66818
-3.70904
-3.74698
-3.78025
-3.80782
-3.82869
-3.84231
-3.84871
-3.84862
-3.8437
-3.83569
-3.82592
-3.81552
-3.80527
-3.7956
-3.78683
-3.77928
-3.77361
-3.76979
-3.77643
-3.81156
-3.84422
-3.87301
-3.89728
-3.91611
-3.92911
-3.9363
-3.93821
-3.936
-3.93099
-3.92425
-3.9166
-3.90865
-3.90081
-3.89345
-3.88694
-3.88201
-3.87877
-3.88718
-3.91749
-3.94571
-3.97094
-3.99214
-4.00902
-4.02125
-4.02883
-4.03215
-4.03201
-4.02936
-4.02505
-4.01969
-4.01375
-4.00758
-4.00155
-3.99605
-3.99185
-3.98907
-3.99994
-4.02616
-4.05057
-4.07256
-4.0913
-4.10647
-4.11789
-4.12556
-4.1298
-4.13116
-4.13034
-4.12795
-4.12448
-4.12027
-4.11561
-4.11081
-4.10629
-4.10276
-4.10037
-4.11434
-4.13708
-4.15838
-4.17749
-4.19401
-4.20764
-4.21823
-4.2258
-4.23058
-4.233
-4.23353
-4.23265
-4.23071
-4.22798
-4.22465
-4.22098
-4.21736
-4.21448
-4.21238
-4.23006
-4.2498
-4.26831
-4.28503
-4.29962
-4.31185
-4.32162
-4.32895
-4.33402
-4.33713
-4.33864
-4.33891
-4.33821
-4.3367
-4.3345
-4.33182
-4.32896
-4.32664
-4.32485
-4.34689
-4.36403
-4.38012
-4.39474
-4.40762
-4.41858
-4.42755
-4.43454
-4.43969
-4.44322
-4.44542
-4.44654
-4.44678
-4.44625
-4.44501
-4.44318
-4.44096
-4.43907
-4.43761
-4.46465
-4.4795
-4.49348
-4.50625
-4.5176
-4.5274
-4.53558
-4.54217
-4.54725
-4.551
-4.55363
-4.55534
-4.55627
-4.5565
-4.55601
-4.55489
-4.55327
-4.55178
-4.55058
-4.5832
-4.596
-4.60811
-4.61924
-4.62923
-4.63796
-4.64538
-4.65151
-4.65642
-4.66022
-4.66309
-4.66516
-4.66655
-4.66732
-4.6674
-4.66686
-4.66575
-4.66462
-4.66364
-4.70219
-4.71332
-4.72379
-4.73346
-4.74221
-4.74995
-4.75664
-4.76228
-4.76692
-4.77065
-4.77358
-4.77584
-4.7775
-4.77861
-4.7791
-4.779
-4.7783
-4.77751
-4.77671
-4.82192
-4.83138
-4.84036
-4.8487
-4.85631
-4.86312
-4.86909
-4.87421
-4.87851
-4.88207
-4.88495
-4.88725
-4.88902
-4.89032
-4.89106
-4.89128
-4.89092
-4.89039
-4.88975
-4.94205
-4.95004
-4.95765
-4.96477
-4.97132
-4.97725
-4.9825
-4.98708
-4.991
-4.9943
-4.99704
-4.99927
-5.00105
-5.00241
-5.00328
-5.00371
-5.00357
-5.00326
-5.00274
-5.06255
-5.06918
-5.07552
-5.08151
-5.08706
-5.09214
-5.09669
-5.10072
-5.10421
-5.1072
-5.10972
-5.11181
-5.11351
-5.11485
-5.11574
-5.11628
-5.11627
-5.11612
-5.11569
-5.18333
-5.1887
-5.19386
-5.19878
-5.20338
-5.20763
-5.21149
-5.21495
-5.21799
-5.22063
-5.22289
-5.22479
-5.22635
-5.22761
-5.22844
-5.22901
-5.22899
-5.22894
-5.22859
-5.30436
-5.30852
-5.31256
-5.31645
-5.32013
-5.32358
-5.32676
-5.32965
-5.33224
-5.33452
-5.33649
-5.33817
-5.33956
-5.34066
-5.34137
-5.34186
-5.34178
-5.34171
-5.34141
-5.42556
-5.42856
-5.43152
-5.43441
-5.43721
-5.43988
-5.44239
-5.44474
-5.44688
-5.4488
-5.45049
-5.45193
-5.45312
-5.454
-5.45455
-5.45483
-5.45462
-5.45442
-5.45407
-5.5469
-5.54875
-5.55065
-5.55257
-5.5545
-5.55642
-5.5583
-5.56011
-5.56181
-5.56337
-5.56477
-5.56597
-5.56692
-5.56758
-5.56791
-5.56793
-5.56754
-5.56715
-5.56658
-5.66831
-5.66902
-5.66985
-5.67081
-5.67188
-5.67305
-5.67428
-5.67555
-5.6768
-5.678
-5.67909
-5.68003
-5.68076
-5.68122
-5.68134
-5.68109
-5.6804
-5.67963
-5.67867
)
;

boundaryField
{
    leftWall
    {
        type            calculated;
        value           nonuniform List<scalar> 
50
(
4692.05
3890.11
3085.9
2279.52
1475.39
811.117
530.937
482.326
428.514
353.881
285.793
219.271
154.238
94.3029
45.2892
8.48317
-1.04229
-1.16851
-1.29959
-1.43336
-1.56667
-1.69734
-1.82543
-1.95312
-2.08506
-2.22267
-2.36622
-2.51513
-2.66682
-2.81951
-2.97227
-3.12454
-3.27576
-3.4253
-3.57256
-3.71731
-3.85944
-3.99942
-4.13793
-4.27626
-4.4154
-4.5551
-4.69466
-4.83361
-4.97196
-5.10942
-5.24677
-5.38468
-5.52266
-5.66068
)
;
    }
    rightWall
    {
        type            calculated;
        value           nonuniform List<scalar> 
50
(
3473.86
2751.2
2099.77
1655.75
1447.54
1385.3
1339.03
1286.29
1197.3
1073.06
959.71
846.414
725.969
616.043
505.203
389.372
286.277
216.648
162.533
105.301
47.008
12.8237
-2.79964
-2.90142
-3.00548
-3.09204
-3.17681
-3.26452
-3.35727
-3.45521
-3.55727
-3.66243
-3.76979
-3.87877
-3.98907
-4.10037
-4.21238
-4.32485
-4.43761
-4.55058
-4.66364
-4.77671
-4.88975
-5.00274
-5.11569
-5.22859
-5.34141
-5.45407
-5.56658
-5.67867
)
;
    }
    lowerWall
    {
        type            calculated;
        value           nonuniform List<scalar> 
62
(
5090.2
5103.51
5145.95
5204.78
5280.5
5365.98
5461.73
5567.33
5679.93
5786.5
5868.45
5911.2
5905.98
5852.15
5755.89
5628.98
5485.61
5339.77
5202.83
5083.16
4987.32
4919.01
4885.43
4487.3
3682.45
2869.82
2049.15
1238.22
710.6
554.608
495.317
496.069
509.444
570.291
623.693
3095.76
2390.69
1805.4
1421.65
1170.57
988.808
813.461
667.67
3433.3
3262.03
3259.19
3293.24
3328.47
3410.54
3540.07
3431.31
3263.47
3099.85
3026.55
2990.78
2964.75
2985.58
3060.95
3200.41
3389.41
3627.16
3851.31
)
;
    }
    atmosphere
    {
        type            calculated;
        value           nonuniform List<scalar> 
46
(
-5.72905
-5.72907
-5.72908
-5.72908
-5.72906
-5.72905
-5.72904
-5.72904
-5.72904
-5.72904
-5.72904
-5.72904
-5.72904
-5.72904
-5.72904
-5.72904
-5.72904
-5.72904
-5.72904
-5.72904
-5.72904
-5.72904
-5.72904
-5.72904
-5.72904
-5.72904
-5.72904
-5.72904
-5.72909
-5.72935
-5.72982
-5.73047
-5.73127
-5.73219
-5.73318
-5.73421
-5.73523
-5.73618
-5.73702
-5.73768
-5.7381
-5.73817
-5.73781
-5.73683
-5.73561
-5.73391
)
;
    }
    defaultFaces
    {
        type            empty;
    }
}


// ************************************************************************* //
