/*--------------------------------*- C++ -*----------------------------------*\
| =========                 |                                                 |
| \\      /  F ield         | OpenFOAM: The Open Source CFD Toolbox           |
|  \\    /   O peration     | Version:  2312                                  |
|   \\  /    A nd           | Website:  www.openfoam.com                      |
|    \\/     M anipulation  |                                                 |
\*---------------------------------------------------------------------------*/
FoamFile
{
    version     2.0;
    format      ascii;
    arch        "LSB;label=32;scalar=64";
    class       surfaceScalarField;
    location    "1.85";
    object      phi;
}
// * * * * * * * * * * * * * * * * * * * * * * * * * * * * * * * * * * * * * //

dimensions      [0 3 -1 0 0 0 0];

oriented        oriented;

internalField   nonuniform List<scalar> 
4432
(
1.49824e-06
-1.49824e-06
1.04067e-06
4.57568e-07
1.29196e-07
9.11475e-07
-1.25731e-06
1.38651e-06
-2.86368e-06
1.60637e-06
-4.66478e-06
1.80109e-06
-6.42012e-06
1.75535e-06
-7.86219e-06
1.44207e-06
-8.80004e-06
9.37849e-07
-9.23901e-06
4.3897e-07
-9.32476e-06
8.57579e-08
-9.12682e-06
-1.97942e-07
-8.68507e-06
-4.41749e-07
-8.04746e-06
-6.37606e-07
-7.27742e-06
-7.70048e-07
-6.42968e-06
-8.47735e-07
-5.54834e-06
-8.8135e-07
-4.64484e-06
-9.03494e-07
-3.71783e-06
-9.27015e-07
-2.78458e-06
-9.33251e-07
-1.89009e-06
-8.94491e-07
-1.08102e-06
-8.09069e-07
-1.08102e-06
1.2389e-07
-1.62212e-06
-9.4316e-08
6.75776e-07
-8.95472e-07
1.71263e-06
-1.95669e-06
2.44773e-06
-3.39479e-06
3.04447e-06
-5.12472e-06
3.53102e-06
-6.87329e-06
3.50393e-06
-8.32275e-06
2.89152e-06
-9.24698e-06
1.86208e-06
-9.6437e-06
8.35694e-07
-9.67851e-06
1.20562e-07
-9.42749e-06
-4.48961e-07
-8.95153e-06
-9.17708e-07
-8.29127e-06
-1.29787e-06
-7.50681e-06
-1.5545e-06
-6.65147e-06
-1.70308e-06
-5.76625e-06
-1.76657e-06
-4.85886e-06
-1.81089e-06
-3.92015e-06
-1.86573e-06
-2.97114e-06
-1.88226e-06
-2.06799e-06
-1.79764e-06
-1.28913e-06
-1.58793e-06
-2.37015e-06
-9.76343e-07
-6.4578e-07
-1.34923e-06
1.04866e-06
-1.95238e-06
2.31579e-06
-2.81354e-06
3.30889e-06
-4.12835e-06
4.35927e-06
-5.81245e-06
5.21513e-06
-7.59829e-06
5.28976e-06
-9.06848e-06
4.3617e-06
-9.93637e-06
2.72997e-06
-1.02134e-05
1.11268e-06
-1.01499e-05
5.7088e-08
-9.83135e-06
-7.67494e-07
-9.30786e-06
-1.4412e-06
-8.6055e-06
-2.00022e-06
-7.78508e-06
-2.37493e-06
-6.89251e-06
-2.59564e-06
-5.9607e-06
-2.69837e-06
-4.98349e-06
-2.7881e-06
-3.94945e-06
-2.89976e-06
-2.91064e-06
-2.92107e-06
-1.95517e-06
-2.75312e-06
-1.14349e-06
-2.3996e-06
-3.51364e-06
-1.84919e-06
1.20341e-06
-2.48549e-06
1.68496e-06
-2.87767e-06
2.70797e-06
-3.51386e-06
3.94509e-06
-4.6788e-06
5.52421e-06
-6.34692e-06
6.88325e-06
-8.2336e-06
7.17644e-06
-9.78003e-06
5.90813e-06
-1.05836e-05
3.53358e-06
-1.06838e-05
1.21282e-06
-1.04719e-05
-1.54814e-07
-1.00946e-05
-1.1448e-06
-9.52524e-06
-2.01055e-06
-8.77988e-06
-2.74558e-06
-7.91763e-06
-3.23717e-06
-6.93928e-06
-3.574e-06
-5.87885e-06
-3.75879e-06
-4.7388e-06
-3.92815e-06
-3.54311e-06
-4.09546e-06
-2.40509e-06
-4.05909e-06
-1.45703e-06
-3.70117e-06
-6.51785e-07
-3.20485e-06
-4.16542e-06
-1.80161e-06
3.00502e-06
-2.08642e-06
1.96977e-06
-2.26922e-06
2.89076e-06
-3.1899e-06
4.86577e-06
-4.60133e-06
6.93564e-06
-6.46536e-06
8.74728e-06
-8.60425e-06
9.31533e-06
-1.03276e-05
7.63149e-06
-1.10931e-05
4.29912e-06
-1.10336e-05
1.15327e-06
-1.06126e-05
-5.75804e-07
-1.00971e-05
-1.66026e-06
-9.45656e-06
-2.65112e-06
-8.61334e-06
-3.5888e-06
-7.62367e-06
-4.22684e-06
-6.48566e-06
-4.71202e-06
-5.26991e-06
-4.97454e-06
-3.98582e-06
-5.21224e-06
-2.69226e-06
-5.38902e-06
-1.59068e-06
-5.16067e-06
-8.18241e-07
-4.47361e-06
-1.37485e-07
-3.88561e-06
-4.30291e-06
-7.14503e-07
3.71952e-06
-1.51484e-06
2.77011e-06
-2.58265e-06
3.95857e-06
-4.26726e-06
6.55038e-06
-5.90333e-06
8.5717e-06
-7.66774e-06
1.05117e-05
-9.6053e-06
1.12529e-05
-1.11042e-05
9.13036e-06
-1.16316e-05
4.82652e-06
-1.15771e-05
1.09883e-06
-1.10138e-05
-1.13913e-06
-1.02051e-05
-2.46899e-06
-9.2511e-06
-3.6051e-06
-8.10918e-06
-4.73072e-06
-6.95045e-06
-5.38556e-06
-5.79911e-06
-5.86336e-06
-4.68839e-06
-6.08527e-06
-3.40341e-06
-6.49722e-06
-2.13199e-06
-6.66043e-06
-1.16575e-06
-6.12691e-06
-5.01713e-07
-5.13764e-06
1.09256e-07
-4.49657e-06
-4.19364e-06
-4.35707e-06
8.07658e-06
-1.16289e-05
1.00419e-05
-1.42425e-05
6.57219e-06
-1.55489e-05
7.85672e-06
-1.54673e-05
8.49014e-06
-1.52371e-05
1.02815e-05
-1.56764e-05
1.16921e-05
-1.62216e-05
9.67554e-06
-1.55372e-05
4.14219e-06
-1.385e-05
-5.88365e-07
-1.21697e-05
-2.81946e-06
-1.10035e-05
-3.63521e-06
-1.00446e-05
-4.56395e-06
-8.92284e-06
-5.85252e-06
-7.62967e-06
-6.67872e-06
-5.81575e-06
-7.67727e-06
-3.3332e-06
-8.56781e-06
-7.66276e-07
-9.06412e-06
4.21568e-07
-7.84826e-06
1.826e-07
-5.88793e-06
-5.60551e-08
-4.89897e-06
1.56638e-07
-4.70924e-06
-4.037e-06
-6.45828e-07
8.72239e-06
-1.2229e-05
2.16251e-05
-2.14018e-05
1.5745e-05
-2.47501e-05
1.1205e-05
-2.54461e-05
9.18614e-06
-2.34603e-05
8.2956e-06
-2.05321e-05
8.76393e-06
-1.71776e-05
6.32097e-06
-1.5726e-05
2.69056e-06
-1.4909e-05
-1.40534e-06
-1.34018e-05
-4.32671e-06
-1.12326e-05
-5.80432e-06
-8.98498e-06
-6.81161e-06
-6.75033e-06
-8.08715e-06
-5.02731e-06
-8.40174e-06
-4.06877e-06
-8.63579e-06
-1.27261e-06
-1.1364e-05
1.9368e-06
-1.22735e-05
3.76142e-06
-9.67286e-06
4.4662e-06
-6.5927e-06
4.43706e-06
-4.86983e-06
3.32081e-06
-3.59299e-06
-7.16176e-07
-9.95825e-06
9.95825e-06
-1.74163e-05
7.45802e-06
-2.02402e-05
2.82392e-06
-1.99183e-05
-3.21918e-07
-1.80108e-05
-1.90743e-06
-1.43598e-05
-3.65105e-06
-9.13921e-06
-5.22058e-06
-7.62557e-06
-1.51364e-06
-7.71852e-06
9.29408e-08
-8.09654e-06
3.7802e-07
-7.38483e-06
-7.11709e-07
-6.79355e-06
-5.91278e-07
-7.04806e-06
2.54506e-07
-7.43258e-06
3.84523e-07
-6.95695e-06
-4.75631e-07
-5.35723e-06
-1.59972e-06
-3.80463e-06
-1.5526e-06
-1.31156e-06
-2.49307e-06
-1.31157e-06
-1.55661e-06
1.15149e-05
-2.88809e-06
8.7895e-06
-4.7753e-06
4.71114e-06
-7.5112e-06
2.41398e-06
-8.7181e-06
-7.00536e-07
-5.24901e-06
-7.12013e-06
-9.33131e-08
-1.03763e-05
2.14863e-06
-3.75559e-06
1.54092e-06
7.00649e-07
-1.58734e-06
3.50628e-06
-4.25824e-06
1.95919e-06
-5.25376e-06
4.04229e-07
-4.99724e-06
-2.01446e-09
-4.93564e-06
3.2292e-07
-4.46281e-06
-9.48463e-07
-4.68663e-06
-1.3759e-06
-4.98932e-06
-1.24991e-06
-3.42232e-06
-4.06007e-06
-4.73389e-06
3.58701e-06
7.92786e-06
5.03302e-06
7.3435e-06
7.07501e-06
2.66915e-06
5.44528e-06
4.04372e-06
5.22313e-06
-4.78387e-07
7.31172e-06
-9.20872e-06
1.1313e-05
-1.43776e-05
1.59356e-05
-8.37823e-06
1.72492e-05
-6.12915e-07
1.25863e-05
8.16914e-06
5.99157e-06
8.55396e-06
1.82554e-07
6.21324e-06
-2.07205e-06
2.25259e-06
-2.13231e-06
3.83179e-07
-1.27575e-06
-1.80503e-06
-1.91898e-06
-7.32661e-07
-1.55248e-06
-1.61641e-06
-6.132e-07
-4.99935e-06
-5.34709e-06
1.22531e-06
6.70257e-06
6.50462e-06
2.06421e-06
1.21279e-05
-2.9541e-06
1.36978e-05
2.47377e-06
1.55656e-05
-2.34619e-06
1.67023e-05
-1.03454e-05
1.65565e-05
-1.42317e-05
1.76009e-05
-9.42267e-06
1.80489e-05
-1.06088e-06
1.5902e-05
1.0316e-05
1.17664e-05
1.26896e-05
4.81752e-06
1.31621e-05
-4.39853e-06
1.14686e-05
-1.05019e-05
6.4865e-06
-4.28142e-06
-8.02548e-06
7.03796e-07
-5.71788e-06
5.17027e-06
-6.08288e-06
4.29959e-06
-4.12868e-06
-1.0475e-06
-9.48813e-07
7.65138e-06
8.24465e-06
-7.12925e-06
1.27151e-05
-7.42453e-06
2.02685e-05
-5.07969e-06
2.36332e-05
-5.71089e-06
2.37078e-05
-1.042e-05
1.8336e-05
-8.85987e-06
1.27952e-05
-3.88185e-06
1.06864e-05
1.04792e-06
7.358e-06
1.36444e-05
-2.88591e-06
2.29335e-05
-9.53295e-06
1.98091e-05
-1.12422e-05
1.31778e-05
-1.52045e-05
1.04488e-05
-6.59691e-06
-1.66331e-05
-5.4963e-06
-6.81849e-06
-1.28918e-06
-1.029e-05
2.5614e-06
-7.97927e-06
1.5139e-06
1.01907e-05
-2.53931e-06
1.35085e-05
-1.0447e-05
1.45225e-05
-8.43847e-06
2.08821e-05
-1.14393e-05
2.5175e-05
-1.00039e-05
2.28822e-05
-8.12715e-06
1.5265e-05
-1.24267e-06
8.90109e-06
2.48206e-06
4.54814e-06
5.40087e-06
-6.33543e-06
2.4528e-05
-1.38689e-05
3.04669e-05
-1.26069e-05
1.85472e-05
-9.96591e-06
1.05368e-05
-1.05361e-05
1.1019e-05
-7.89711e-06
-1.9272e-05
-8.71745e-06
-5.99815e-06
-6.19009e-06
-1.28174e-05
-4.7678e-07
-1.36926e-05
1.03712e-06
1.79761e-05
-2.05154e-05
1.64116e-05
-8.88244e-06
1.17523e-05
-3.77917e-06
1.50381e-05
-1.47251e-05
1.69415e-05
-1.19072e-05
1.00955e-05
-1.28118e-06
5.02409e-06
3.82873e-06
2.12215e-06
5.384e-06
-7.42277e-06
1.49458e-05
-1.79904e-05
3.50956e-05
-1.75623e-05
3.00388e-05
-1.29852e-05
1.39701e-05
-8.31862e-06
5.87025e-06
-8.17461e-06
1.08749e-05
-1.07864e-05
-1.66602e-05
-9.50761e-06
-7.27695e-06
-7.85055e-06
-1.44744e-05
-3.87455e-06
-1.76686e-05
-2.83743e-06
1.12004e-05
-3.17158e-05
4.47965e-06
-2.16169e-06
-4.26244e-06
4.96295e-06
-1.2344e-07
-1.88641e-05
1.13795e-07
-1.21444e-05
-4.24765e-06
3.08027e-06
-4.03242e-06
3.61351e-06
-9.66318e-06
1.10147e-05
-2.13575e-05
2.66401e-05
-2.32179e-05
3.69559e-05
-1.8413e-05
2.52338e-05
-1.17153e-05
7.27249e-06
-6.1557e-06
3.1061e-07
-6.62526e-06
1.13445e-05
-1.28175e-05
-1.0468e-05
-1.09969e-05
-9.09753e-06
-9.00156e-06
-1.64697e-05
-6.06293e-06
-2.06072e-05
-8.90036e-06
8.33488e-06
3.87501e-07
-4.69296e-07
3.04293e-05
-1.72505e-05
3.25262e-05
-2.96868e-05
2.36413e-05
-3.59881e-05
1.54874e-05
-3.82421e-05
1.05496e-05
-3.83449e-05
8.86678e-06
-3.46493e-05
2.62531e-06
-3.08158e-05
-1.14292e-06
-2.65878e-05
-5.63333e-06
-2.24016e-05
-8.51295e-06
-1.7698e-05
-1.05079e-05
-1.26984e-05
-1.18112e-05
-7.91607e-06
-1.28695e-05
-1.57625e-06
-1.47415e-05
7.60316e-06
-1.78152e-05
1.64008e-05
-2.01615e-05
2.19965e-05
-1.78692e-05
2.43367e-05
-1.20131e-05
2.45626e-05
-6.81858e-06
2.23327e-05
-2.63991e-06
1.76767e-05
1.06303e-06
6.91795e-06
1.00426e-05
1.22373e-05
-1.18499e-05
7.38841e-06
3.52782e-05
4.0018e-06
3.59128e-05
-1.35142e-06
2.89945e-05
-4.29433e-06
1.84303e-05
-5.42474e-06
1.168e-05
-5.14933e-06
8.59136e-06
-6.14274e-06
3.61872e-06
-8.94985e-06
1.6642e-06
-1.01586e-05
-4.42458e-06
-8.6501e-06
-1.00215e-05
-4.06961e-06
-1.50884e-05
3.78445e-06
-1.96653e-05
1.36053e-05
-2.26904e-05
2.4224e-05
-2.53603e-05
3.32521e-05
-2.68433e-05
3.90494e-05
-2.59588e-05
4.2654e-05
-2.14738e-05
4.54735e-05
-1.48326e-05
4.77759e-05
-9.1209e-06
4.89583e-05
-3.82237e-06
4.77466e-05
2.27474e-06
6.78743e-06
4.78771e-05
9.45324e-06
-2.13031e-05
-6.23604e-07
4.5355e-05
-2.53654e-07
3.55429e-05
4.60079e-06
2.41401e-05
1.30749e-05
9.95621e-06
2.13277e-05
3.42728e-06
3.15305e-05
-1.6115e-06
3.70269e-05
-1.87763e-06
3.85832e-05
1.07906e-07
3.60164e-05
-1.85781e-06
3.26576e-05
-6.66266e-06
3.22313e-05
-1.46621e-05
3.57134e-05
-2.31473e-05
4.1973e-05
-2.895e-05
4.8814e-05
-3.22013e-05
5.48706e-05
-3.28999e-05
5.95478e-05
-3.0636e-05
6.29525e-05
-2.48786e-05
6.56424e-05
-1.75225e-05
6.6065e-05
-9.54346e-06
6.44193e-05
-2.17671e-06
6.0831e-05
5.86311e-06
1.51458e-05
5.24727e-05
3.09042e-06
-2.43935e-05
-7.39279e-06
5.58382e-05
-9.94251e-06
3.80926e-05
-8.98771e-06
2.31853e-05
4.75533e-06
-3.78684e-06
2.19561e-05
-1.37735e-05
3.86677e-05
-1.8323e-05
5.31218e-05
-1.63318e-05
6.53472e-05
-1.21175e-05
7.29229e-05
-9.43343e-06
7.53514e-05
-9.09118e-06
7.39666e-05
-1.32774e-05
7.14436e-05
-2.06244e-05
6.99695e-05
-2.74759e-05
7.04925e-05
-3.27243e-05
7.26547e-05
-3.50621e-05
7.57297e-05
-3.3711e-05
7.90998e-05
-2.82486e-05
8.21683e-05
-2.0591e-05
8.38715e-05
-1.12467e-05
8.2918e-05
-1.22322e-06
7.82028e-05
1.05784e-05
2.43596e-05
6.8989e-05
4.41079e-07
-2.48346e-05
5.6763e-06
5.0603e-05
5.12742e-07
4.32561e-05
2.5511e-06
2.11469e-05
9.97582e-06
-1.12116e-05
2.27682e-05
-2.65659e-05
3.54927e-05
-3.10476e-05
4.73163e-05
-2.81554e-05
5.67983e-05
-2.15995e-05
6.32461e-05
-1.58813e-05
6.53507e-05
-1.11958e-05
6.53441e-05
-1.32707e-05
6.49063e-05
-2.01866e-05
6.61297e-05
-2.86994e-05
6.98165e-05
-3.6411e-05
7.44877e-05
-3.97334e-05
7.98474e-05
-3.90707e-05
8.43727e-05
-3.27739e-05
8.78578e-05
-2.40761e-05
9.07738e-05
-1.41627e-05
9.20308e-05
-2.48016e-06
8.96455e-05
1.29637e-05
2.87406e-05
8.52643e-05
-3.70757e-06
-2.1127e-05
1.87336e-05
2.81618e-05
2.05095e-05
4.14803e-05
2.76648e-05
1.39917e-05
2.82299e-05
-1.17767e-05
2.75415e-05
-2.58775e-05
2.87809e-05
-3.22869e-05
3.08673e-05
-3.02418e-05
3.26004e-05
-2.33326e-05
3.46493e-05
-1.79302e-05
3.50836e-05
-1.163e-05
3.62186e-05
-1.44058e-05
4.47982e-05
-2.87662e-05
6.0872e-05
-4.47732e-05
8.35211e-05
-5.906e-05
7.38831e-05
-3.00955e-05
6.94931e-05
-3.46808e-05
6.82027e-05
-3.14837e-05
6.74364e-05
-2.33097e-05
6.90042e-05
-1.57306e-05
5.79454e-05
8.57881e-06
2.77562e-05
4.31527e-05
6.75345e-05
-1.10381e-05
-1.32804e-05
-7.84663e-06
7.91281e-06
6.96866e-06
2.43707e-05
2.50224e-05
3.65601e-05
1.80229e-06
3.65809e-05
-1.17976e-05
2.6725e-05
-1.60216e-05
1.99822e-05
-2.55441e-05
2.28065e-05
-3.30662e-05
3.22121e-05
-3.27382e-05
4.7526e-05
-3.3244e-05
6.86562e-05
-3.27603e-05
7.86042e-05
-2.43539e-05
6.34773e-05
-1.36394e-05
3.84592e-05
-1.97551e-05
9.59986e-06
-3.02007e-05
-3.99805e-06
-1.64976e-05
-2.57456e-05
-1.29333e-05
-5.02979e-05
-6.93149e-06
-7.92685e-05
5.6609e-06
-0.000111835
1.6836e-05
-0.00013445
3.11939e-05
-0.000135048
4.37508e-05
4.7651e-05
-0.000115166
-2.17884e-05
1.3942e-05
-8.15774e-06
-6.6618e-06
1.99104e-05
-3.04561e-06
3.55708e-05
-1.3858e-05
3.55067e-05
-1.17332e-05
1.73285e-05
2.15681e-06
9.89797e-06
-1.81135e-05
2.62812e-05
-4.94493e-05
4.84658e-05
-5.49228e-05
7.8335e-05
-6.31131e-05
0.000104209
-5.86341e-05
9.41114e-05
-1.42565e-05
5.25197e-05
2.79522e-05
9.45071e-06
2.33139e-05
-3.03539e-05
9.60382e-06
-5.82464e-05
1.13949e-05
-8.73693e-05
1.61896e-05
-0.000121598
2.7297e-05
-0.000156237
4.03002e-05
-0.000186673
4.72717e-05
-0.000204851
4.93716e-05
-0.000209933
4.88325e-05
5.03239e-05
-0.000212607
2.11621e-06
1.18263e-05
1.77036e-06
-6.31536e-06
1.22951e-05
-1.35698e-05
7.90241e-06
-9.4647e-06
-6.05328e-06
2.22304e-06
-8.06497e-06
4.16908e-06
8.1913e-06
-3.43693e-05
2.78351e-05
-6.90929e-05
4.49765e-05
-7.2064e-05
5.09944e-05
-6.9131e-05
2.4607e-05
-3.22467e-05
-8.46834e-06
1.88189e-05
-2.60833e-05
4.55673e-05
-3.10526e-05
2.82833e-05
-5.01576e-05
2.87089e-05
-7.12785e-05
3.2516e-05
-9.62739e-05
4.11849e-05
-0.000124193
5.52165e-05
-0.000152193
6.83002e-05
-0.000177727
7.28048e-05
-0.000195299
6.69441e-05
-0.000213254
6.67872e-05
8.15015e-05
-0.000244433
1.54528e-05
-3.6257e-06
1.93413e-05
-1.02033e-05
2.24416e-05
-1.66696e-05
2.66146e-05
-1.36372e-05
3.55437e-05
-6.7056e-06
4.85853e-05
-8.87207e-06
3.86554e-05
-2.44389e-05
1.80037e-05
-4.84408e-05
-1.16784e-05
-4.23816e-05
-5.00212e-05
-3.0788e-05
-7.60403e-05
-6.22724e-06
-6.98986e-05
1.26776e-05
-4.94189e-05
2.50878e-05
-4.85858e-05
2.74505e-05
-5.86663e-05
3.87896e-05
-7.33042e-05
4.71539e-05
-9.11475e-05
5.90283e-05
-0.000110551
7.462e-05
-0.000130159
8.79085e-05
-0.000148173
9.08187e-05
-0.00016404
8.28109e-05
-0.000184586
8.73323e-05
0.000109465
-0.000212551
1.1492e-05
-1.51172e-05
1.71489e-05
-1.58598e-05
1.7866e-05
-1.73861e-05
2.00199e-05
-1.57907e-05
2.64433e-05
-1.31286e-05
2.94459e-05
-1.18743e-05
1.11148e-05
-6.10747e-06
-2.39877e-05
-1.33381e-05
-5.29635e-05
-1.34054e-05
-7.09244e-05
-1.28267e-05
-6.94127e-05
-7.73855e-06
-6.20715e-05
5.33676e-06
-5.58834e-05
1.89001e-05
-5.87233e-05
3.02906e-05
-6.34561e-05
4.35227e-05
-7.15138e-05
5.52117e-05
-8.15891e-05
6.91036e-05
-9.20564e-05
8.50873e-05
-0.000102648
9.84999e-05
-0.000113523
0.000101694
-0.000126179
9.5466e-05
-0.000140608
0.000101761
0.000123204
-0.000154348
8.41613e-06
-2.35327e-05
1.25168e-05
-1.996e-05
1.27392e-05
-1.76081e-05
1.06176e-05
-1.36686e-05
5.48941e-06
-8.00013e-06
-4.82362e-06
-1.56095e-06
-2.09942e-05
1.00634e-05
-3.78891e-05
3.55714e-06
-4.46442e-05
-6.65009e-06
-4.80615e-05
-9.40907e-06
-5.15192e-05
-4.28052e-06
-5.40477e-05
7.86561e-06
-5.64998e-05
2.13525e-05
-6.03008e-05
3.40919e-05
-6.33399e-05
4.6562e-05
-6.6936e-05
5.88079e-05
-7.06778e-05
7.28454e-05
-7.3697e-05
8.81065e-05
-7.63584e-05
0.000101161
-8.09084e-05
0.000106243
-8.96871e-05
0.000104244
-9.58373e-05
0.000107911
0.000121211
-9.3844e-05
3.36602e-06
-2.68984e-05
4.2835e-06
-2.08771e-05
2.29236e-06
-1.56166e-05
-2.02815e-06
-9.34778e-06
-9.23569e-06
-7.92306e-07
-1.8199e-05
7.40262e-06
-2.32487e-05
1.51133e-05
-2.77617e-05
8.07038e-06
-3.09e-05
-3.51151e-06
-3.76885e-05
-2.62036e-06
-4.66037e-05
4.63503e-06
-5.35774e-05
1.48396e-05
-5.7646e-05
2.54214e-05
-5.96665e-05
3.61127e-05
-6.03188e-05
4.72144e-05
-6.04932e-05
5.89824e-05
-5.97213e-05
7.20735e-05
-5.75243e-05
8.59096e-05
-5.44437e-05
9.80806e-05
-5.29757e-05
0.000104775
-5.44628e-05
0.000105731
-5.17303e-05
0.000105178
0.000112349
-4.28688e-05
-1.86724e-06
-2.50306e-05
-5.09238e-06
-1.76515e-05
-9.97651e-06
-1.07321e-05
-1.57077e-05
-3.61631e-06
-2.06397e-05
4.1399e-06
-2.41768e-05
1.09399e-05
-2.39115e-05
1.48482e-05
-2.53974e-05
9.55643e-06
-3.28413e-05
3.93266e-06
-4.26639e-05
7.20246e-06
-5.03173e-05
1.22886e-05
-5.45207e-05
1.90432e-05
-5.61453e-05
2.70462e-05
-5.60884e-05
3.60559e-05
-5.48396e-05
4.59658e-05
-5.26238e-05
5.67666e-05
-4.90429e-05
6.84927e-05
-4.37392e-05
8.0606e-05
-3.71981e-05
9.15394e-05
-3.12297e-05
9.88063e-05
-2.63973e-05
0.000100898
-1.85414e-05
9.73218e-05
9.60444e-05
-2.23653e-06
-6.77541e-06
-1.82551e-05
-1.41606e-05
-1.02662e-05
-2.16187e-05
-3.27375e-06
-2.82097e-05
2.97487e-06
-3.24035e-05
8.33392e-06
-3.40852e-05
1.26217e-05
-3.41941e-05
1.49573e-05
-3.7262e-05
1.26244e-05
-4.37646e-05
1.04354e-05
-4.80981e-05
1.15362e-05
-5.06775e-05
1.48682e-05
-5.17475e-05
2.01134e-05
-5.15415e-05
2.68405e-05
-5.01822e-05
3.46968e-05
-4.77014e-05
4.34851e-05
-4.40134e-05
5.30788e-05
-3.88207e-05
6.33001e-05
-3.18672e-05
7.36524e-05
-2.33757e-05
8.30479e-05
-1.43575e-05
8.9788e-05
-5.59767e-06
9.21383e-05
3.60859e-06
8.81154e-05
8.04663e-05
1.91869e-05
-1.14942e-05
-6.76049e-06
-2.28636e-05
1.10351e-06
-3.23283e-05
6.19115e-06
-3.88124e-05
9.45914e-06
-4.22659e-05
1.17875e-05
-4.33839e-05
1.37399e-05
-4.29996e-05
1.45732e-05
-4.36178e-05
1.32427e-05
-4.51534e-05
1.19712e-05
-4.6325e-05
1.27079e-05
-4.69073e-05
1.54506e-05
-4.66886e-05
1.98949e-05
-4.55351e-05
2.56871e-05
-4.33761e-05
3.2538e-05
-4.01099e-05
4.0219e-05
-3.55807e-05
4.85496e-05
-2.95675e-05
5.72869e-05
-2.18827e-05
6.59676e-05
-1.25938e-05
7.37591e-05
-2.22398e-06
7.9418e-05
8.5078e-06
8.14064e-05
1.82057e-05
7.84175e-05
6.99191e-05
2.87532e-05
-1.48669e-05
8.10647e-06
-2.70229e-05
1.32596e-05
-3.57287e-05
1.4897e-05
-4.13752e-05
1.51058e-05
-4.4441e-05
1.48534e-05
-4.51834e-05
1.44823e-05
-4.42946e-05
1.36845e-05
-4.33607e-05
1.23088e-05
-4.29561e-05
1.15667e-05
-4.26783e-05
1.24303e-05
-4.21797e-05
1.49522e-05
-4.11746e-05
1.88899e-05
-3.94396e-05
2.39522e-05
-3.67924e-05
2.98908e-05
-3.30778e-05
3.65046e-05
-2.81374e-05
4.36093e-05
-2.18104e-05
5.09599e-05
-1.39885e-05
5.81459e-05
-4.73012e-06
6.45007e-05
5.66883e-06
6.9019e-05
1.65391e-05
7.0536e-05
2.68822e-05
6.80744e-05
6.15394e-05
3.52624e-05
-1.45897e-05
2.26965e-05
-2.54303e-05
2.41003e-05
-3.32468e-05
2.27135e-05
-3.84756e-05
2.03347e-05
-4.13269e-05
1.77048e-05
-4.20677e-05
1.52231e-05
-4.13782e-05
1.29951e-05
-4.03178e-05
1.12486e-05
-3.93741e-05
1.06231e-05
-3.84905e-05
1.15468e-05
-3.74319e-05
1.38937e-05
-3.59623e-05
1.74204e-05
-3.38678e-05
2.18578e-05
-3.09595e-05
2.69827e-05
-2.7069e-05
3.26141e-05
-2.20445e-05
3.85849e-05
-1.57662e-05
4.46818e-05
-8.1915e-06
5.05712e-05
5.80653e-07
5.57286e-05
1.0223e-05
5.93765e-05
2.01408e-05
6.06182e-05
2.94364e-05
5.87788e-05
5.39598e-05
3.70163e-05
-1.24453e-05
3.51416e-05
-2.21813e-05
3.38363e-05
-2.94273e-05
2.99596e-05
-3.4327e-05
2.52345e-05
-3.70607e-05
2.04386e-05
-3.79536e-05
1.6116e-05
-3.7591e-05
1.26326e-05
-3.6669e-05
1.03266e-05
-3.55905e-05
9.54459e-06
-3.43933e-05
1.03497e-05
-3.30022e-05
1.25027e-05
-3.12515e-05
1.56698e-05
-2.89648e-05
1.95712e-05
-2.59715e-05
2.39895e-05
-2.2114e-05
2.87567e-05
-1.72543e-05
3.37254e-05
-1.12956e-05
3.87231e-05
-4.21802e-06
4.34937e-05
3.86464e-06
4.7646e-05
1.25417e-05
5.06994e-05
2.13012e-05
5.18586e-05
2.93474e-05
5.07326e-05
4.73789e-05
3.59287e-05
-1.04494e-05
4.55912e-05
-1.91172e-05
4.25041e-05
-2.57798e-05
3.66223e-05
-3.03939e-05
2.98485e-05
-3.30746e-05
2.31194e-05
-3.4115e-05
1.71564e-05
-3.39754e-05
1.2493e-05
-3.3145e-05
9.49629e-06
-3.19632e-05
8.36284e-06
-3.0569e-05
8.95558e-06
-2.89668e-05
1.09006e-05
-2.70484e-05
1.37515e-05
-2.46806e-05
1.72034e-05
-2.1722e-05
2.1031e-05
-1.80374e-05
2.50722e-05
-1.35074e-05
2.91955e-05
-8.04851e-06
3.32643e-05
-1.65003e-06
3.70953e-05
5.56397e-06
4.0432e-05
1.33536e-05
4.29097e-05
2.11588e-05
4.40533e-05
2.83882e-05
4.35033e-05
4.12782e-05
3.44893e-05
-8.80222e-06
5.43933e-05
-1.64985e-05
5.02003e-05
-2.25949e-05
4.27186e-05
-2.69377e-05
3.41913e-05
-2.95721e-05
2.57538e-05
-3.07119e-05
1.82963e-05
-3.06923e-05
1.24733e-05
-2.98852e-05
8.68928e-06
-2.86112e-05
7.08883e-06
-2.70794e-05
7.42382e-06
-2.5322e-05
9.14327e-06
-2.33012e-05
1.17307e-05
-2.09186e-05
1.48209e-05
-1.80629e-05
1.81753e-05
-1.4624e-05
2.16333e-05
-1.05022e-05
2.50737e-05
-5.62751e-06
2.83897e-05
1.48165e-08
3.14531e-05
6.35128e-06
3.40956e-05
1.31813e-05
3.60796e-05
2.01642e-05
3.70703e-05
2.68247e-05
3.68427e-05
3.53685e-05
3.27348e-05
-7.41143e-06
6.18048e-05
-1.42057e-05
5.69945e-05
-1.97683e-05
4.82812e-05
-2.3862e-05
3.82849e-05
-2.64526e-05
2.83443e-05
-2.76614e-05
1.95052e-05
-2.77165e-05
1.25284e-05
-2.6909e-05
7.88181e-06
-2.55563e-05
5.73611e-06
-2.39003e-05
5.76783e-06
-2.20288e-05
7.27187e-06
-1.99481e-05
9.65002e-06
-1.75894e-05
1.24623e-05
-1.48676e-05
1.54536e-05
-1.16965e-05
1.84622e-05
-7.9964e-06
2.13737e-05
-3.70808e-06
2.41014e-05
1.18831e-06
2.65567e-05
6.63893e-06
2.8645e-05
1.25393e-05
3.01791e-05
1.86457e-05
3.09638e-05
2.46705e-05
3.08179e-05
2.97222e-05
3.03171e-05
-6.11696e-06
6.79215e-05
-1.20388e-05
6.29162e-05
-1.70955e-05
5.33379e-05
-2.09705e-05
4.21598e-05
-2.35375e-05
3.09114e-05
-2.48257e-05
2.07933e-05
-2.49584e-05
1.26611e-05
-2.41557e-05
7.0791e-06
-2.27469e-05
4.32736e-06
-2.09944e-05
4.01535e-06
-1.90499e-05
5.32739e-06
-1.69353e-05
7.53545e-06
-1.46198e-05
1.01468e-05
-1.20427e-05
1.28765e-05
-9.13481e-06
1.55543e-05
-5.83366e-06
1.80726e-05
-2.09013e-06
2.03579e-05
2.11463e-06
2.2352e-05
6.75443e-06
2.40052e-05
1.17526e-05
2.51808e-05
1.69744e-05
2.5742e-05
2.22363e-05
2.55558e-05
2.45947e-05
2.73641e-05
-4.77926e-06
7.27008e-05
-9.79087e-06
6.79278e-05
-1.43469e-05
5.78938e-05
-1.80367e-05
4.58496e-05
-2.06273e-05
3.35019e-05
-2.20361e-05
2.2202e-05
-2.22827e-05
1.29078e-05
-2.15418e-05
6.33818e-06
-2.01145e-05
2.90002e-06
-1.83156e-05
2.21646e-06
-1.63118e-05
3.32365e-06
-1.41933e-05
5.41702e-06
-1.19425e-05
7.89605e-06
-9.51621e-06
1.04503e-05
-6.85978e-06
1.2898e-05
-3.92134e-06
1.51342e-05
-6.63932e-07
1.71006e-05
2.94089e-06
1.87472e-05
6.87604e-06
2.007e-05
1.10773e-05
2.09795e-05
1.54562e-05
2.1363e-05
1.99028e-05
2.11093e-05
2.01822e-05
2.43156e-05
-3.28993e-06
7.59905e-05
-7.27389e-06
7.19116e-05
-1.12907e-05
6.19105e-05
-1.48229e-05
4.93818e-05
-1.75008e-05
3.61798e-05
-1.91105e-05
2.38116e-05
-1.95484e-05
1.33457e-05
-1.89276e-05
5.7174e-06
-1.75533e-05
1.52573e-06
-1.57554e-05
4.18514e-07
-1.37566e-05
1.32488e-06
-1.16597e-05
3.32016e-06
-9.49384e-06
5.73023e-06
-7.22691e-06
8.18339e-06
-4.81232e-06
1.04834e-05
-2.20474e-06
1.25266e-05
6.39235e-07
1.42566e-05
3.70891e-06
1.56776e-05
7.0327e-06
1.67462e-05
1.05578e-05
1.74543e-05
1.42137e-05
1.77071e-05
1.79124e-05
1.74105e-05
1.65122e-05
2.15826e-05
-1.59878e-06
7.75893e-05
-4.34205e-06
7.46548e-05
-7.71649e-06
6.52848e-05
-1.10949e-05
5.27602e-05
-1.39296e-05
3.90144e-05
-1.58438e-05
2.57258e-05
-1.65777e-05
1.40796e-05
-1.61611e-05
5.30082e-06
-1.49373e-05
3.01942e-07
-1.32254e-05
-1.29336e-06
-1.12816e-05
-6.18989e-07
-9.25662e-06
1.29523e-06
-7.20824e-06
3.68188e-06
-5.11801e-06
6.09319e-06
-2.94576e-06
8.31116e-06
-6.53717e-07
1.02346e-05
1.78792e-06
1.1815e-05
4.41372e-06
1.30518e-05
7.21848e-06
1.39415e-05
1.01817e-05
1.4491e-05
1.32346e-05
1.46541e-05
1.62997e-05
1.43454e-05
1.34918e-05
1.93204e-05
2.44225e-07
7.73448e-05
-1.01132e-06
7.59102e-05
-3.45777e-06
6.77312e-05
-6.57059e-06
5.58729e-05
-9.66153e-06
4.21053e-05
-1.20517e-05
2.81159e-05
-1.31575e-05
1.51854e-05
-1.30657e-05
5.20903e-06
-1.21191e-05
-6.44725e-07
-1.05993e-05
-2.81317e-06
-8.79635e-06
-2.42188e-06
-6.90765e-06
-5.93452e-07
-5.02115e-06
1.79541e-06
-3.13536e-06
4.20742e-06
-1.21467e-06
6.3905e-06
7.77192e-07
8.24277e-06
2.86239e-06
9.72985e-06
5.07256e-06
1.08416e-05
7.42088e-06
1.15932e-05
9.89233e-06
1.20195e-05
1.24389e-05
1.21075e-05
1.49879e-05
1.17963e-05
1.10052e-05
1.74747e-05
2.12078e-06
7.52241e-05
2.5278e-06
7.55031e-05
1.34021e-06
6.89187e-05
-1.08177e-06
5.82948e-05
-4.16176e-06
4.51852e-05
-7.18698e-06
3.11411e-05
-9.0931e-06
1.70915e-05
-9.46745e-06
5.58337e-06
-8.93019e-06
-1.18198e-06
-7.7422e-06
-4.00115e-06
-6.20317e-06
-3.9609e-06
-4.53944e-06
-2.25716e-06
-2.87418e-06
1.30167e-07
-1.23266e-06
2.56592e-06
4.15696e-07
4.74216e-06
2.10085e-06
6.55764e-06
3.84748e-06
7.98324e-06
5.68474e-06
9.00442e-06
7.61672e-06
9.66118e-06
9.65204e-06
9.98411e-06
1.17561e-05
1.00034e-05
1.38677e-05
9.6848e-06
8.9534e-06
1.59198e-05
3.90143e-06
7.13224e-05
5.77597e-06
7.36285e-05
5.88951e-06
6.88051e-05
4.56358e-06
5.96207e-05
2.11333e-06
4.76354e-05
-8.97138e-07
3.41515e-05
-3.57717e-06
1.97716e-05
-5.0903e-06
7.09648e-06
-5.19967e-06
-1.0726e-06
-4.53934e-06
-4.66148e-06
-3.42081e-06
-5.07941e-06
-2.09309e-06
-3.58487e-06
-7.22267e-07
-1.24065e-06
6.23326e-07
1.22034e-06
1.97176e-06
3.39374e-06
3.34559e-06
5.18383e-06
4.7676e-06
6.56125e-06
6.24295e-06
7.52908e-06
7.79341e-06
8.11071e-06
9.43124e-06
8.34623e-06
1.11406e-05
8.29399e-06
1.2867e-05
7.95833e-06
7.26961e-06
1.45511e-05
5.53214e-06
6.57903e-05
8.55681e-06
7.06037e-05
9.58975e-06
6.77721e-05
9.08153e-06
6.01289e-05
7.4305e-06
4.92864e-05
5.15648e-06
3.64255e-05
2.60234e-06
2.23257e-05
3.97071e-07
9.30174e-06
-7.96097e-07
1.20559e-07
-9.25402e-07
-4.53218e-06
-4.10536e-07
-5.59427e-06
4.48873e-07
-4.44428e-06
1.43245e-06
-2.22422e-06
2.45248e-06
2.00311e-07
3.47944e-06
2.36679e-06
4.52128e-06
4.14199e-06
5.61384e-06
5.4687e-06
6.7525e-06
6.39043e-06
7.95337e-06
6.90984e-06
9.22184e-06
7.07771e-06
1.05609e-05
6.95487e-06
1.19427e-05
6.57656e-06
5.91713e-06
1.32955e-05
6.83599e-06
5.89541e-05
1.06548e-05
6.67848e-05
1.22212e-05
6.62056e-05
1.22424e-05
6.01076e-05
1.12387e-05
5.029e-05
9.62722e-06
3.80369e-05
7.58271e-06
2.43702e-05
5.46668e-06
1.14177e-05
3.81271e-06
1.77451e-06
2.97652e-06
-3.69599e-06
2.81777e-06
-5.43554e-06
3.09457e-06
-4.72108e-06
3.61938e-06
-2.74903e-06
4.25137e-06
-4.31676e-07
4.91238e-06
1.70578e-06
5.63227e-06
3.4221e-06
6.39455e-06
4.70642e-06
7.20462e-06
5.58036e-06
8.07456e-06
6.0399e-06
9.00226e-06
6.14995e-06
1.00111e-05
5.94606e-06
1.10658e-05
5.52183e-06
4.86434e-06
1.21187e-05
7.49685e-06
5.14572e-05
1.17044e-05
6.25771e-05
1.35787e-05
6.43312e-05
1.40805e-05
5.96057e-05
1.37227e-05
5.06477e-05
1.28091e-05
3.89505e-05
1.14433e-05
2.57359e-05
9.73796e-06
1.31231e-05
8.08533e-06
3.42711e-06
6.83897e-06
-2.44965e-06
6.11383e-06
-4.71041e-06
5.81792e-06
-4.42518e-06
5.81666e-06
-2.74779e-06
5.99652e-06
-6.11558e-07
6.27891e-06
1.42337e-06
6.64419e-06
3.05682e-06
7.08092e-06
4.26969e-06
7.58684e-06
5.07443e-06
8.14533e-06
5.48139e-06
8.77128e-06
5.52395e-06
9.46089e-06
5.25641e-06
1.02149e-05
4.76782e-06
4.09437e-06
1.0985e-05
7.37962e-06
4.40773e-05
1.14281e-05
5.85285e-05
1.36302e-05
6.2129e-05
1.47793e-05
5.84564e-05
1.51975e-05
5.02294e-05
1.50741e-05
3.90738e-05
1.44381e-05
2.63719e-05
1.32658e-05
1.42953e-05
1.18034e-05
4.88941e-06
1.0374e-05
-1.02031e-06
9.23521e-06
-3.57163e-06
8.43179e-06
-3.62179e-06
7.92027e-06
-2.2363e-06
7.63549e-06
-3.26818e-07
7.52559e-06
1.53325e-06
7.5394e-06
3.04298e-06
7.66441e-06
4.14465e-06
7.87071e-06
4.86811e-06
8.15552e-06
5.19655e-06
8.49352e-06
5.18589e-06
8.90183e-06
4.84806e-06
9.37625e-06
4.29341e-06
3.57792e-06
9.89282e-06
6.43792e-06
3.76393e-05
1.00417e-05
5.49245e-05
1.27392e-05
5.94314e-05
1.47177e-05
5.64777e-05
1.60284e-05
4.89186e-05
1.67522e-05
3.835e-05
1.6826e-05
2.62979e-05
1.61455e-05
1.49757e-05
1.48992e-05
6.13568e-06
1.33856e-05
4.93266e-07
1.19439e-05
-2.12997e-06
1.07196e-05
-2.39755e-06
9.76354e-06
-1.28034e-06
9.052e-06
3.84669e-07
8.56665e-06
2.01855e-06
8.26843e-06
3.34116e-06
8.09883e-06
4.31421e-06
8.04698e-06
4.91993e-06
8.07251e-06
5.17098e-06
8.16923e-06
5.08911e-06
8.32133e-06
4.69594e-06
8.54167e-06
4.07301e-06
3.30409e-06
8.81566e-06
4.52625e-06
3.31128e-05
8.12823e-06
5.13223e-05
1.14828e-05
5.60767e-05
1.43504e-05
5.36101e-05
1.6572e-05
4.66969e-05
1.80893e-05
3.68326e-05
1.87377e-05
2.56494e-05
1.84263e-05
1.5287e-05
1.73107e-05
7.25121e-06
1.57257e-05
2.07818e-06
1.40237e-05
-4.28037e-07
1.24555e-05
-8.29441e-07
1.11389e-05
3.62096e-08
1.00997e-05
1.42381e-06
9.32249e-06
2.79569e-06
8.74807e-06
3.91553e-06
8.34311e-06
4.71912e-06
8.06731e-06
5.19568e-06
7.88465e-06
5.35359e-06
7.76706e-06
5.20663e-06
7.70361e-06
4.75933e-06
7.69983e-06
4.07684e-06
3.24738e-06
7.75659e-06
1.97538e-06
3.11373e-05
6.20737e-06
4.70902e-05
1.02965e-05
5.19874e-05
1.39996e-05
4.99069e-05
1.70179e-05
4.36784e-05
1.91151e-05
3.47353e-05
2.012e-05
2.46444e-05
1.99762e-05
1.54308e-05
1.88752e-05
8.35205e-06
1.7162e-05
3.79128e-06
1.5231e-05
1.5029e-06
1.33913e-05
1.01021e-06
1.18298e-05
1.59758e-06
1.0592e-05
2.66158e-06
9.63421e-06
3.75337e-06
8.8984e-06
4.65128e-06
8.33665e-06
5.28081e-06
7.90447e-06
5.62781e-06
7.56029e-06
5.69771e-06
7.28015e-06
5.48671e-06
7.0402e-06
4.99927e-06
6.84503e-06
4.2719e-06
3.38881e-06
6.70372e-06
-1.24225e-08
3.11494e-05
4.5089e-06
4.25687e-05
9.23138e-06
4.72647e-05
1.35905e-05
4.55476e-05
1.71644e-05
4.01044e-05
1.9463e-05
3.24365e-05
2.05326e-05
2.35747e-05
2.0371e-05
1.55923e-05
1.91835e-05
9.5394e-06
1.73537e-05
5.62107e-06
1.52685e-05
3.58797e-06
1.32948e-05
2.98378e-06
1.16268e-05
3.26551e-06
1.03302e-05
3.95812e-06
9.35224e-06
4.73127e-06
8.60339e-06
5.40006e-06
8.00825e-06
5.87588e-06
7.51472e-06
6.12129e-06
7.08146e-06
6.13091e-06
6.68794e-06
5.88017e-06
6.31478e-06
5.37235e-06