/*--------------------------------*- C++ -*----------------------------------*\
| =========                 |                                                 |
| \\      /  F ield         | OpenFOAM: The Open Source CFD Toolbox           |
|  \\    /   O peration     | Version:  2312                                  |
|   \\  /    A nd           | Website:  www.openfoam.com                      |
|    \\/     M anipulation  |                                                 |
\*---------------------------------------------------------------------------*/
FoamFile
{
    version     2.0;
    format      ascii;
    arch        "LSB;label=32;scalar=64";
    class       volVectorField;
    location    "1.85";
    object      U;
}
// * * * * * * * * * * * * * * * * * * * * * * * * * * * * * * * * * * * * * //

dimensions      [0 1 -1 0 0 0 0];

internalField   nonuniform List<vector> 
2268
(
(0.0150972 -0.00773375 0)
(0.0174085 0.000870554 0)
(0.00768312 0.00275072 0)
(-0.00524177 0.00437435 0)
(-0.0232147 0.00483692 0)
(-0.0430742 0.00514918 0)
(-0.0638437 0.00485402 0)
(-0.0817738 0.00386574 0)
(-0.0950345 0.00250483 0)
(-0.102407 0.00123719 0)
(-0.10548 0.000384243 0)
(-0.105656 -0.000359555 0)
(-0.10255 -0.000963787 0)
(-0.0965892 -0.00150623 0)
(-0.0885334 -0.00193826 0)
(-0.0791931 -0.00222743 0)
(-0.0692516 -0.00240101 0)
(-0.059018 -0.00253872 0)
(-0.0484524 -0.00270055 0)
(-0.0375703 -0.0028301 0)
(-0.0268476 -0.00280938 0)
(-0.0177585 -0.00252214 0)
(-0.00743138 -0.00277731 0)
(-0.00222485 -0.00934518 0)
(0.0044409 0.00357363 0)
(-0.00639698 0.00695417 0)
(-0.0143773 0.0103472 0)
(-0.0301348 0.0125332 0)
(-0.0485294 0.0145127 0)
(-0.0690455 0.0144106 0)
(-0.0870147 0.0120284 0)
(-0.100238 0.00786294 0)
(-0.107267 0.00370255 0)
(-0.109827 0.000735553 0)
(-0.109394 -0.00172086 0)
(-0.105766 -0.00373602 0)
(-0.0995148 -0.0053382 0)
(-0.0912517 -0.00640661 0)
(-0.0817621 -0.00694731 0)
(-0.0717395 -0.00711579 0)
(-0.0614783 -0.00722801 0)
(-0.0508598 -0.00740486 0)
(-0.0398456 -0.00744423 0)
(-0.0289623 -0.00713238 0)
(-0.0197006 -0.00637936 0)
(-0.01032 -0.00923795 0)
(-0.0131609 -0.00768459 0)
(-0.0101418 0.00423437 0)
(-0.0198932 0.0113501 0)
(-0.0252896 0.0158936 0)
(-0.0392185 0.0198953 0)
(-0.0564921 0.0232796 0)
(-0.077168 0.023385 0)
(-0.0955322 0.0192935 0)
(-0.108483 0.012144 0)
(-0.114371 0.00498641 0)
(-0.115704 0.000309721 0)
(-0.114358 -0.0031319 0)
(-0.1101 -0.00620522 0)
(-0.103382 -0.00866937 0)
(-0.0946832 -0.0103257 0)
(-0.0847724 -0.0113559 0)
(-0.0742907 -0.0118306 0)
(-0.0633801 -0.0121633 0)
(-0.0517823 -0.0125362 0)
(-0.0396364 -0.0125985 0)
(-0.0278271 -0.0119298 0)
(-0.0183872 -0.0104064 0)
(-0.00818165 -0.0159628 0)
(-0.0194001 0.00138099 0)
(-0.0242705 0.00686656 0)
(-0.0316408 0.0134498 0)
(-0.034653 0.0200404 0)
(-0.0460727 0.0277054 0)
(-0.06248 0.0337041 0)
(-0.0839846 0.0344515 0)
(-0.103471 0.0284616 0)
(-0.116378 0.0177616 0)
(-0.120617 0.00702929 0)
(-0.120012 -0.00042387 0)
(-0.11763 -0.00572985 0)
(-0.112852 -0.0100135 0)
(-0.105715 -0.0134212 0)
(-0.0965996 -0.0155883 0)
(-0.0859796 -0.0167943 0)
(-0.0742349 -0.0172327 0)
(-0.0615839 -0.0177131 0)
(-0.0479669 -0.018395 0)
(-0.0342014 -0.0183555 0)
(-0.0217101 -0.0169505 0)
(-0.0132151 -0.0145482 0)
(-0.00179811 -0.0208884 0)
(-0.0196455 0.0115676 0)
(-0.0218642 0.01157 0)
(-0.0246262 0.0159107 0)
(-0.0282167 0.0222358 0)
(-0.0441493 0.0315337 0)
(-0.0627703 0.0404396 0)
(-0.0872338 0.0437219 0)
(-0.109201 0.0369155 0)
(-0.122564 0.0211213 0)
(-0.125389 0.00597721 0)
(-0.12248 -0.000726483 0)
(-0.118418 -0.00556477 0)
(-0.112619 -0.0105162 0)
(-0.104632 -0.0152533 0)
(-0.0941921 -0.0189258 0)
(-0.0817642 -0.0218373 0)
(-0.0681905 -0.0235563 0)
(-0.0537996 -0.0250229 0)
(-0.0384924 -0.0263288 0)
(-0.0243942 -0.0261198 0)
(-0.0130207 -0.0240747 0)
(-0.00704034 -0.0221848 0)
(0.00445585 -0.0268824 0)
(-0.007717 0.0172756 0)
(-0.00723099 0.00708601 0)
(-0.0257732 0.0120027 0)
(-0.0364227 0.0263225 0)
(-0.0592441 0.0382777 0)
(-0.0776645 0.0478505 0)
(-0.101138 0.0503263 0)
(-0.121159 0.0404937 0)
(-0.128025 0.0235654 0)
(-0.130624 0.00682724 0)
(-0.128249 -0.00679224 0)
(-0.121336 -0.0143673 0)
(-0.112159 -0.0203598 0)
(-0.10054 -0.0257931 0)
(-0.0872148 -0.0284635 0)
(-0.0741146 -0.0298476 0)
(-0.0615607 -0.0309407 0)
(-0.0473457 -0.0338004 0)
(-0.0313535 -0.0362709 0)
(-0.0186856 -0.0357003 0)
(-0.00858288 -0.031022 0)
(-0.00370377 -0.0261674 0)
(0.00689083 -0.0261387 0)
(-0.000406094 0.0290524 0)
(-0.0903844 0.0251754 0)
(-0.160997 0.0270584 0)
(-0.178753 0.0437016 0)
(-0.177245 0.0541007 0)
(-0.172189 0.0655033 0)
(-0.177285 0.0697812 0)
(-0.18888 0.0543261 0)
(-0.184198 0.0262256 0)
(-0.161813 0.00745106 0)
(-0.143381 -0.00269042 0)
(-0.130448 -0.00828394 0)
(-0.120962 -0.0139298 0)
(-0.110549 -0.0197605 0)
(-0.0975095 -0.023963 0)
(-0.0810381 -0.0288624 0)
(-0.0557877 -0.0325339 0)
(-0.023464 -0.0352636 0)
(0.00335455 -0.0334424 0)
(0.00762254 -0.0253922 0)
(-0.00218446 -0.0190266 0)
(0.000971374 -0.0178494 0)
(0.00503599 -0.016901 0)
(0.0448332 0.0527566 0)
(-0.0612803 0.090247 0)
(-0.208451 0.0528348 0)
(-0.275036 0.0440777 0)
(-0.294133 0.041051 0)
(-0.281303 0.0480687 0)
(-0.249626 0.0579873 0)
(-0.215325 0.0481389 0)
(-0.190135 0.0206889 0)
(-0.177946 -0.0118515 0)
(-0.157614 -0.0256861 0)
(-0.1365 -0.0275775 0)
(-0.115688 -0.031118 0)
(-0.0939402 -0.0398126 0)
(-0.069675 -0.0460111 0)
(-0.0521772 -0.0488704 0)
(-0.0327693 -0.0565284 0)
(0.00713867 -0.0599454 0)
(0.0365938 -0.0472757 0)
(0.0492943 -0.0336068 0)
(0.0509922 -0.0283168 0)
(0.0539924 -0.0272164 0)
(0.0303945 -0.0220802 0)
(-0.0869417 0.0326084 0)
(-0.159981 0.0186174 0)
(-0.224389 -0.00163366 0)
(-0.237407 -0.0110134 0)
(-0.219982 -0.00892102 0)
(-0.18312 -0.00779052 0)
(-0.128008 -0.00882786 0)
(-0.0940308 -0.00403801 0)
(-0.0885633 -0.00148216 0)
(-0.0904045 -0.00187931 0)
(-0.08748 -0.00460968 0)
(-0.0798444 -0.00525213 0)
(-0.0794271 -0.00406173 0)
(-0.0849756 -0.00419769 0)
(-0.0836088 -0.00542116 0)
(-0.0723724 -0.008966 0)
(-0.0486168 -0.00745731 0)
(-0.0347544 -0.0070573 0)
(0.00936735 0.0022559 0)
(-0.0303296 0.0568351 0)
(-0.0142707 0.0460991 0)
(-0.0433915 0.025438 0)
(-0.0673519 0.00788553 0)
(-0.108811 -0.0115945 0)
(-0.0840822 -0.0319985 0)
(-0.0206299 -0.0420731 0)
(0.0162028 -0.00807638 0)
(0.0288076 0.00313241 0)
(0.00228789 0.00561469 0)
(-0.0343535 -0.00370834 0)
(-0.0577733 -0.00185141 0)
(-0.0607317 0.00683103 0)
(-0.0580487 0.00757001 0)
(-0.0535951 -0.000577293 0)
(-0.0510206 -0.00875841 0)
(-0.0547104 -0.00899778 0)
(-0.0538446 -0.0166493 0)
(-0.0149961 -0.0153516 0)
(0.00515931 0.0572853 0)
(0.0610095 0.0443444 0)
(0.0717421 0.0249147 0)
(0.0760402 0.0187895 0)
(0.0501931 0.00511917 0)
(0.0739633 -0.0369061 0)
(0.107951 -0.0644585 0)
(0.145486 -0.0331329 0)
(0.198913 0.00152556 0)
(0.180854 0.0275737 0)
(0.11981 0.0254255 0)
(0.0256045 0.00706331 0)
(-0.0225565 -0.00736294 0)
(-0.0260686 -0.00508363 0)
(-0.018189 -0.00719707 0)
(-0.0158776 -0.00259007 0)
(-0.0258069 -0.00319411 0)
(-0.00854152 -0.0216848 0)
(-0.00167967 -0.0275585 0)
(-0.0209617 0.0236365 0)
(0.0425841 0.0340685 0)
(0.122097 0.00174083 0)
(0.140168 0.0202629 0)
(0.16831 -0.0090848 0)
(0.19456 -0.0505923 0)
(0.195833 -0.0678871 0)
(0.18345 -0.0438168 0)
(0.202299 -0.0079336 0)
(0.20608 0.0467602 0)
(0.161489 0.0491715 0)
(0.103554 0.0480325 0)
(1.96015e-05 0.0332071 0)
(-0.110161 0.0101196 0)
(-0.101769 -0.0134601 0)
(-0.0127666 -0.00840188 0)
(0.035533 -0.0149377 0)
(0.0695964 -0.0221362 0)
(0.042458 -0.0166312 0)
(-0.0898385 0.0422736 0)
(0.0710333 -0.0172444 0)
(0.119664 -0.0271618 0)
(0.184432 -8.83457e-05 0)
(0.25776 -0.0155665 0)
(0.287616 -0.0498284 0)
(0.254137 -0.0634752 0)
(0.169811 -0.0420584 0)
(0.125159 -0.000809231 0)
(0.12386 0.0527076 0)
(0.0282486 0.0844525 0)
(-0.0885433 0.0905058 0)
(-0.109257 0.0745025 0)
(-0.184157 0.0550408 0)
(-0.11607 -0.0669897 0)
(-0.0565696 -0.0372858 0)
(-0.0534623 -0.0435492 0)
(0.0169859 -0.0212036 0)
(0.0454435 0.00540506 0)
(0.0887225 0.0416487 0)
(0.151584 -0.0456341 0)
(0.154144 -0.0430392 0)
(0.194628 -0.0463349 0)
(0.267869 -0.0415306 0)
(0.295917 -0.0464522 0)
(0.240914 -0.0246676 0)
(0.11367 0.00323141 0)
(0.0869371 0.0100774 0)
(0.00993694 0.0882175 0)
(-0.147619 0.13734 0)
(-0.165986 0.0942754 0)
(-0.112367 0.0546708 0)
(-0.134453 0.0462074 0)
(-0.0876066 -0.0930159 0)
(-0.101578 -0.0296487 0)
(-0.0911636 -0.0533386 0)
(-0.0527239 -0.0573052 0)
(0.0371543 0.00750244 0)
(0.209923 -0.0730285 0)
(0.19962 -0.0582118 0)
(0.15732 -0.0509448 0)
(0.134042 -0.0675882 0)
(0.194971 -0.056943 0)
(0.18287 -0.0305026 0)
(0.0645592 0.0117123 0)
(0.0410594 0.0168343 0)
(-0.000375307 0.0423446 0)
(-0.163872 0.152379 0)
(-0.230233 0.15027 0)
(-0.18305 0.0821311 0)
(-0.10705 0.0435857 0)
(-0.0941858 0.0517368 0)
(-0.0968534 -0.0897234 0)
(-0.133653 -0.0311433 0)
(-0.0964273 -0.0676537 0)
(-0.0804175 -0.0758116 0)
(-0.00713677 0.00197399 0)
(0.160197 -0.143919 0)
(0.115679 -0.0351783 0)
(-0.0359652 0.0167081 0)
(-0.0463033 -0.0847006 0)
(0.0366027 -0.0622218 0)
(-0.0290669 0.0160099 0)
(-0.0567049 0.0182916 0)
(-0.0477727 0.0347477 0)
(-0.183798 0.109663 0)
(-0.276434 0.182691 0)
(-0.258776 0.139233 0)
(-0.169883 0.0518565 0)
(-0.0961046 0.0121077 0)
(-0.0503434 0.0541731 0)
(-0.110769 -0.0629576 0)
(-0.159056 -0.040732 0)
(-0.109352 -0.0742312 0)
(-0.0907954 -0.0903408 0)
(-0.0431101 -0.0290591 0)
(0.0426042 0.0329115 0)
(0.0487495 0.154247 0)
(-0.0546537 0.141795 0)
(-0.135503 0.100066 0)
(-0.182569 0.0680359 0)
(-0.198614 0.0432353 0)
(-0.205293 0.0330972 0)
(-0.197741 0.011107 0)
(-0.180381 -0.00538071 0)
(-0.156613 -0.00779201 0)
(-0.132353 -0.0285934 0)
(-0.106907 -0.0480919 0)
(-0.0811955 -0.0557601 0)
(-0.0572551 -0.0586179 0)
(-0.0298391 -0.0546084 0)
(0.0110241 -0.0582657 0)
(0.0706806 -0.0815335 0)
(0.107392 -0.081209 0)
(0.12654 -0.0586757 0)
(0.13342 -0.0355744 0)
(0.128338 -0.0148968 0)
(0.116798 0.00718872 0)
(0.068771 0.0408854 0)
(0.0540628 -0.0310863 0)
(0.06699 0.166776 0)
(0.0216151 0.195146 0)
(0.0111803 0.152159 0)
(-0.0229259 0.101011 0)
(-0.0239373 0.0658435 0)
(-0.030475 0.0550163 0)
(-0.0255157 0.0197574 0)
(-0.0393459 -0.00360589 0)
(-0.0587531 -0.0443001 0)
(-0.0561191 -0.0669114 0)
(-0.0380277 -0.0787993 0)
(-0.00268479 -0.0874706 0)
(0.0432539 -0.0940586 0)
(0.102875 -0.111121 0)
(0.156956 -0.127909 0)
(0.197727 -0.130662 0)
(0.221753 -0.112224 0)
(0.237347 -0.0777869 0)
(0.250347 -0.0471601 0)
(0.259725 -0.0229578 0)
(0.261128 0.000613095 0)
(0.256097 0.0215857 0)
(0.0479806 -0.0938036 0)
(0.0330792 0.215119 0)
(-0.0314485 0.203632 0)
(0.0232737 0.163504 0)
(0.0364687 0.107291 0)
(0.0959148 0.0689245 0)
(0.142344 0.042717 0)
(0.189903 0.0246529 0)
(0.205808 0.0219262 0)
(0.202706 -0.000525157 0)
(0.180624 -0.0321921 0)
(0.166569 -0.073152 0)
(0.181266 -0.115635 0)
(0.205854 -0.143753 0)
(0.242519 -0.160329 0)
(0.278939 -0.164506 0)
(0.308883 -0.152553 0)
(0.331082 -0.120342 0)
(0.346491 -0.0792392 0)
(0.354824 -0.0394555 0)
(0.351973 -0.00307234 0)
(0.337845 0.0318322 0)
(0.303201 0.0667482 0)
(-0.00459364 -0.12865 0)
(0.0241482 0.270254 0)
(-0.0804311 0.178468 0)
(-0.0486896 0.108979 0)
(-0.0321595 0.0113054 0)
(0.0804806 -0.0264533 0)
(0.16327 -0.0570273 0)
(0.247327 -0.0442407 0)
(0.318993 -0.0214614 0)
(0.373162 -0.0192452 0)
(0.403183 -0.0376179 0)
(0.405554 -0.0787963 0)
(0.390743 -0.125179 0)
(0.3771 -0.160437 0)
(0.374037 -0.181847 0)
(0.38242 -0.188808 0)
(0.397637 -0.180792 0)
(0.415502 -0.156399 0)
(0.433136 -0.122755 0)
(0.44682 -0.0818444 0)
(0.449987 -0.0350516 0)
(0.435506 0.0153392 0)
(0.394183 0.073057 0)
(-0.0682199 -0.143196 0)
(0.0692182 0.313461 0)
(0.00528335 0.22307 0)
(-0.0038772 0.11886 0)
(0.0354165 -0.0644144 0)
(0.0853757 -0.137105 0)
(0.153668 -0.154724 0)
(0.222 -0.141446 0)
(0.279946 -0.11517 0)
(0.324563 -0.0890732 0)
(0.350788 -0.0680336 0)
(0.354753 -0.0693837 0)
(0.346576 -0.0968337 0)
(0.34647 -0.134993 0)
(0.36178 -0.170214 0)
(0.386804 -0.19104 0)
(0.412984 -0.193094 0)
(0.441601 -0.170505 0)
(0.463657 -0.128151 0)
(0.480928 -0.0669072 0)
(0.493538 0.00855424 0)
(0.492994 0.0735547 0)
(0.470024 0.140257 0)
(-0.0960294 -0.125618 0)
(0.0688626 0.248267 0)
(0.105578 0.243357 0)
(0.12342 0.113109 0)
(0.165434 -0.0545595 0)
(0.154026 -0.144991 0)
(0.146184 -0.17992 0)
(0.160575 -0.164006 0)
(0.169626 -0.114492 0)
(0.176888 -0.0731725 0)
(0.182821 -0.0401978 0)
(0.188058 -0.0613567 0)
(0.208836 -0.111045 0)
(0.26902 -0.162347 0)
(0.363188 -0.211201 0)
(0.448442 -0.214756 0)
(0.427553 -0.221863 0)
(0.371797 -0.184317 0)
(0.357938 -0.132985 0)
(0.361207 -0.0890264 0)
(0.370083 -0.0264792 0)
(0.28611 0.0817339 0)
(0.0384685 0.246987 0)
(-0.0818088 -0.0781157 0)
(-0.0404248 0.0698876 0)
(0.110613 0.204923 0)
(0.168198 0.0549853 0)
(0.209502 -0.0540401 0)
(0.182352 -0.112221 0)
(0.113765 -0.150545 0)
(0.107025 -0.160612 0)
(0.14323 -0.142829 0)
(0.198895 -0.132426 0)
(0.274535 -0.101069 0)
(0.392732 -0.101555 0)
(0.433883 -0.149178 0)
(0.299917 -0.259844 0)
(0.12553 -0.354165 0)
(0.0074332 -0.147045 0)
(-0.0659078 -0.138886 0)
(-0.194074 -0.125384 0)
(-0.332365 -0.0847876 0)
(-0.555178 -0.0291086 0)
(-0.686504 0.149963 0)
(-0.72146 0.334798 0)
(-0.675818 0.364342 0)
(-0.0929792 -0.0160577 0)
(-0.12775 0.00152573 0)
(0.048995 0.0728652 0)
(0.153357 -0.0346389 0)
(0.212516 -0.07612 0)
(0.150853 -0.0714014 0)
(0.0347463 -0.113089 0)
(0.0883317 -0.158874 0)
(0.192061 -0.165896 0)
(0.316305 -0.178874 0)
(0.452699 -0.202333 0)
(0.626942 -0.14525 0)
(0.481014 -0.0322776 0)
(0.130313 0.0315677 0)
(-0.0588594 -0.0302154 0)
(-0.247394 -0.00424058 0)
(-0.381286 0.00944751 0)
(-0.555556 0.066343 0)
(-0.75974 0.150976 0)
(-0.945437 0.193332 0)
(-1.07003 0.206229 0)
(-1.10826 0.21313 0)
(-1.12616 0.217976 0)
(0.0458823 0.140742 0)
(-0.0289907 -0.0578248 0)
(0.052748 -0.096977 0)
(0.0887816 -0.0940436 0)
(0.00198915 -0.0262797 0)
(-0.0823388 0.0818934 0)
(-0.0128297 -0.133091 0)
(0.109227 -0.385678 0)
(0.204065 -0.427147 0)
(0.259425 -0.495568 0)
(0.262575 -0.415789 0)
(0.0441505 -0.0129355 0)
(-0.137038 0.291397 0)
(-0.141125 0.175672 0)
(-0.212197 0.123229 0)
(-0.323728 0.123633 0)
(-0.445075 0.158701 0)
(-0.590272 0.22883 0)
(-0.747609 0.2966 0)
(-0.902111 0.326453 0)
(-1.01542 0.307207 0)
(-1.08637 0.294278 0)
(-1.17958 0.341345 0)
(0.0500897 0.0108278 0)
(0.100847 -0.0273955 0)
(0.110945 -0.07232 0)
(0.133692 -0.0314474 0)
(0.153644 0.0333703 0)
(0.235929 -0.0175394 0)
(0.272826 -0.171877 0)
(0.146184 -0.364798 0)
(0.0580698 -0.376104 0)
(-0.20085 -0.264141 0)
(-0.382222 0.011776 0)
(-0.377092 0.166128 0)
(-0.312412 0.191082 0)
(-0.245328 0.141388 0)
(-0.285771 0.18667 0)
(-0.350933 0.221719 0)
(-0.438239 0.277084 0)
(-0.540201 0.357285 0)
(-0.650024 0.426799 0)
(-0.758379 0.443223 0)
(-0.839513 0.404438 0)
(-0.934821 0.423275 0)
(-1.03604 0.528614 0)
(0.0357803 -0.051763 0)
(0.0823817 -0.0715151 0)
(0.0968362 -0.0913163 0)
(0.0985772 -0.0966705 0)
(0.123714 -0.0923275 0)
(0.148689 -0.079752 0)
(0.17053 -0.0915609 0)
(-0.0381634 -0.162717 0)
(-0.243456 -0.101735 0)
(-0.353506 -0.086678 0)
(-0.381067 -0.0637146 0)
(-0.344297 0.0167067 0)
(-0.305657 0.104392 0)
(-0.302611 0.159986 0)
(-0.324827 0.227301 0)
(-0.359259 0.281745 0)
(-0.40923 0.351933 0)
(-0.465061 0.437644 0)
(-0.524134 0.50937 0)
(-0.58674 0.521574 0)
(-0.642973 0.479288 0)
(-0.716738 0.511375 0)
(-0.793382 0.639515 0)
(0.0273614 -0.114447 0)
(0.0597335 -0.104616 0)
(0.0711919 -0.100242 0)
(0.0653341 -0.0835921 0)
(0.0513724 -0.0619168 0)
(0.00379567 -0.0508869 0)
(-0.0498497 0.018251 0)
(-0.186357 -0.00406439 0)
(-0.234472 -0.0486559 0)
(-0.251468 -0.0641432 0)
(-0.257408 -0.0414581 0)
(-0.277709 0.0235301 0)
(-0.294068 0.100321 0)
(-0.314494 0.175269 0)
(-0.331177 0.24712 0)
(-0.348261 0.312648 0)
(-0.369002 0.388673 0)
(-0.387143 0.473561 0)
(-0.402438 0.545556 0)
(-0.424656 0.567471 0)
(-0.456122 0.54336 0)
(-0.495071 0.574276 0)
(-0.519137 0.667013 0)
(0.00895731 -0.144524 0)
(0.0244057 -0.116552 0)
(0.0199202 -0.0944464 0)
(0.00223735 -0.0651526 0)
(-0.0223845 -0.0198186 0)
(-0.0823149 0.0303583 0)
(-0.103827 0.0809983 0)
(-0.15366 0.0410561 0)
(-0.154934 -0.0274359 0)
(-0.176339 -0.044764 0)
(-0.221929 -0.00487835 0)
(-0.269466 0.0618533 0)
(-0.300988 0.129466 0)
(-0.316498 0.193175 0)
(-0.321901 0.256276 0)
(-0.323965 0.321804 0)
(-0.323103 0.395425 0)
(-0.315183 0.474237 0)
(-0.300064 0.542962 0)
(-0.289072 0.576949 0)
(-0.288646 0.576481 0)
(-0.278602 0.584015 0)
(-0.245186 0.640547 0)
(-0.00757278 -0.146056 0)
(-0.014627 -0.108738 0)
(-0.0409107 -0.0736859 0)
(-0.0700389 -0.0350518 0)
(-0.0999049 0.00968856 0)
(-0.126194 0.0528986 0)
(-0.127308 0.0848764 0)
(-0.133214 0.0465426 0)
(-0.145308 -0.00817915 0)
(-0.203987 0.0156518 0)
(-0.252223 0.0518165 0)
(-0.283606 0.0962416 0)
(-0.298373 0.14525 0)
(-0.301732 0.197602 0)
(-0.297757 0.253885 0)
(-0.288665 0.314967 0)
(-0.273639 0.382078 0)
(-0.249999 0.452097 0)
(-0.217422 0.514804 0)
(-0.182681 0.553518 0)
(-0.15413 0.561313 0)
(-0.122682 0.544643 0)
(-0.0500067 0.564167 0)
(-0.022885 -0.119575 0)
(-0.0544865 -0.0775075 0)
(-0.0988202 -0.039441 0)
(-0.137551 -0.00202478 0)
(-0.169572 0.0354661 0)
(-0.18163 0.06425 0)
(-0.177578 0.077817 0)
(-0.186464 0.0596952 0)
(-0.221079 0.0486434 0)
(-0.247727 0.0580832 0)
(-0.265757 0.0774949 0)
(-0.275292 0.107962 0)
(-0.27753 0.147087 0)
(-0.273247 0.19245 0)
(-0.262952 0.242879 0)
(-0.246602 0.2979 0)
(-0.223129 0.357072 0)
(-0.190771 0.417567 0)
(-0.148874 0.4726 0)
(-0.100425 0.511175 0)
(-0.0511905 0.52438 0)
(-0.00908903 0.501649 0)
(0.0529562 0.472954 0)
(-0.0386759 -0.0696244 0)
(-0.0923149 -0.0278289 0)
(-0.153743 0.0076841 0)
(-0.197355 0.0352968 0)
(-0.22288 0.0565361 0)
(-0.231624 0.0733639 0)
(-0.229278 0.0808302 0)
(-0.231097 0.0722632 0)
(-0.239531 0.0625836 0)
(-0.24552 0.0665801 0)
(-0.250138 0.0826732 0)
(-0.251179 0.108716 0)
(-0.247599 0.142415 0)
(-0.238825 0.182071 0)
(-0.224402 0.226547 0)
(-0.203664 0.274922 0)
(-0.175598 0.326008 0)
(-0.139005 0.377195 0)
(-0.0932953 0.423606 0)
(-0.039853 0.4577 0)
(0.0183504 0.470999 0)
(0.0740375 0.453625 0)
(0.125519 0.403852 0)
(-0.0526713 -0.000477882 0)
(-0.116348 0.0401255 0)
(-0.17489 0.0592653 0)
(-0.211845 0.0672895 0)
(-0.234169 0.0720514 0)
(-0.242375 0.075901 0)
(-0.239911 0.075905 0)
(-0.23463 0.0693285 0)
(-0.231237 0.0642543 0)
(-0.229315 0.0683789 0)
(-0.227396 0.0823707 0)
(-0.223561 0.104906 0)
(-0.216396 0.134195 0)
(-0.204803 0.168683 0)
(-0.187888 0.207245 0)
(-0.164813 0.248877 0)
(-0.134717 0.292224 0)
(-0.0968306 0.334909 0)
(-0.0509449 0.373012 0)
(0.00185656 0.400734 0)
(0.0605001 0.410939 0)
(0.118057 0.39751 0)
(0.17265 0.357063 0)
(-0.0553346 0.0875328 0)
(-0.110546 0.102927 0)
(-0.16319 0.101822 0)
(-0.196743 0.0954075 0)
(-0.217368 0.087292 0)
(-0.225497 0.0792615 0)
(-0.224215 0.0710107 0)
(-0.2188 0.0629994 0)
(-0.213286 0.0598062 0)
(-0.208458 0.0647434 0)
(-0.203402 0.0779142 0)
(-0.196804 0.0980363 0)
(-0.187428 0.123644 0)
(-0.174179 0.153461 0)
(-0.156092 0.18646 0)
(-0.132302 0.221692 0)
(-0.102066 0.257917 0)
(-0.0649155 0.293125 0)
(-0.0211829 0.324134 0)
(0.0286921 0.346242 0)
(0.0822062 0.353825 0)
(0.134214 0.34269 0)
(0.183038 0.312891 0)
(-0.0470057 0.1572 0)
(-0.0949471 0.156391 0)
(-0.143791 0.141844 0)
(-0.174861 0.122501 0)
(-0.194298 0.102296 0)
(-0.202737 0.0837857 0)
(-0.203085 0.0683546 0)
(-0.199059 0.0576722 0)
(-0.193494 0.0542272 0)
(-0.187393 0.0590059 0)
(-0.18055 0.0711972 0)
(-0.172268 0.0892524 0)
(-0.161596 0.111716 0)
(-0.147588 0.13741 0)
(-0.129356 0.165401 0)
(-0.106091 0.194844 0)
(-0.0771452 0.22471 0)
(-0.0421914 0.253429 0)
(-0.00181637 0.278567 0)
(0.0437873 0.296734 0)
(0.0914427 0.303337 0)
(0.136869 0.295609 0)
(0.178832 0.274058 0)
(-0.0386717 0.218212 0)
(-0.0803131 0.205934 0)
(-0.125274 0.179467 0)
(-0.154055 0.14828 0)
(-0.1727 0.117002 0)
(-0.181587 0.089177 0)
(-0.183166 0.0672237 0)
(-0.180062 0.0530815 0)
(-0.174423 0.0481147 0)
(-0.167462 0.0520462 0)
(-0.159481 0.0630958 0)
(-0.150145 0.0793189 0)
(-0.138776 0.0991142 0)
(-0.124624 0.121302 0)
(-0.106933 0.14499 0)
(-0.085015 0.16943 0)
(-0.0583005 0.193806 0)
(-0.0265697 0.216964 0)
(0.00991596 0.237184 0)
(0.0506297 0.25226 0)
(0.0929778 0.258753 0)
(0.133611 0.254695 0)
(0.171719 0.24018 0)
(-0.0316915 0.270424 0)
(-0.0681396 0.250471 0)
(-0.109201 0.21411 0)
(-0.135797 0.172559 0)
(-0.15379 0.131425 0)
(-0.162996 0.0951662 0)
(-0.165308 0.0669156 0)
(-0.162615 0.0487615 0)
(-0.156758 0.0415469 0)
(-0.149144 0.0441592 0)
(-0.140346 0.0540276 0)
(-0.130288 0.0686839 0)
(-0.118579 0.0862936 0)
(-0.10464 0.105616 0)
(-0.0878678 0.125773 0)
(-0.0676935 0.146087 0)
(-0.0436509 0.165917 0)
(-0.0155802 0.184445 0)
(0.0165775 0.200548 0)
(0.0522484 0.212695 0)
(0.089644 0.218723 0)
(0.126353 0.217104 0)
(0.162134 0.207698 0)
(-0.0259068 0.314557 0)
(-0.0577673 0.28979 0)
(-0.0949472 0.245674 0)
(-0.119541 0.195365 0)
(-0.136985 0.145553 0)
(-0.146415 0.101543 0)
(-0.149211 0.0670535 0)
(-0.146723 0.0444422 0)
(-0.140624 0.0344787 0)
(-0.132442 0.0355294 0)
(-0.122979 0.0442831 0)
(-0.112432 0.0576343 0)
(-0.100605 0.0735147 0)
(-0.0870692 0.0905905 0)
(-0.0713587 0.107972 0)
(-0.0530223 0.12503 0)
(-0.0316827 0.141247 0)
(-0.00724331 0.156055 0)
(0.0205681 0.168772 0)
(0.0511869 0.178264 0)
(0.0835549 0.18318 0)
(0.116205 0.182455 0)
(0.149241 0.175962 0)
(-0.0207256 0.351265 0)
(-0.0480921 0.3242 0)
(-0.0814147 0.274352 0)
(-0.104196 0.216845 0)
(-0.121241 0.159432 0)
(-0.130966 0.108237 0)
(-0.134266 0.0675331 0)
(-0.131988 0.0401234 0)
(-0.125734 0.0270143 0)
(-0.117131 0.0263381 0)
(-0.10719 0.0339861 0)
(-0.0963355 0.0463182 0)
(-0.0845192 0.0609155 0)
(-0.0714719 0.0763177 0)
(-0.056841 0.0916088 0)
(-0.0402701 0.106193 0)
(-0.0214632 0.119651 0)
(-0.000305526 0.131582 0)
(0.023459 0.141616 0)
(0.0493914 0.148873 0)
(0.076851 0.152506 0)
(0.105005 0.151697 0)
(0.134201 0.146349 0)
(-0.0156076 0.380817 0)
(-0.0380854 0.353798 0)
(-0.0674221 0.300297 0)
(-0.0885129 0.237192 0)
(-0.105384 0.173243 0)
(-0.115642 0.115388 0)
(-0.119662 0.0684741 0)
(-0.117821 0.0359148 0)
(-0.111696 0.0193061 0)
(-0.102905 0.0167162 0)
(-0.0926663 0.0233162 0)
(-0.0816192 0.0348755 0)
(-0.0699563 0.0485965 0)
(-0.0574767 0.0628307 0)
(-0.0439142 0.0766243 0)
(-0.0289797 0.0894013 0)
(-0.0124546 0.100821 0)
(0.00583197 0.110575 0)
(0.0260438 0.118567 0)
(0.0478972 0.124132 0)
(0.0709256 0.126634 0)
(0.0946193 0.125417 0)
(0.119358 0.120341 0)
(-0.010179 0.402879 0)
(-0.0268809 0.37827 0)
(-0.0518089 0.323493 0)
(-0.0711827 0.256627 0)
(-0.0881619 0.187322 0)
(-0.0993645 0.123346 0)
(-0.104548 0.0702045 0)
(-0.10346 0.0320982 0)
(-0.0978551 0.0116496 0)
(-0.0891981 0.00692047 0)
(-0.0789645 0.0124777 0)
(-0.0679688 0.0234745 0)
(-0.0565793 0.0366643 0)
(-0.0447499 0.0501635 0)
(-0.0322531 0.0629526 0)
(-0.0188489 0.0744678 0)
(-0.00441498 0.0843988 0)
(0.0113926 0.092624 0)
(0.0286018 0.0990513 0)
(0.046983 0.10337 0)
(0.0662328 0.105041 0)
(0.0859525 0.103494 0)
(0.106447 0.0984999 0)
(-0.00435951 0.416498 0)
(-0.0138998 0.396862 0)
(-0.0335353 0.343592 0)
(-0.0509417 0.275209 0)
(-0.06832 0.202131 0)
(-0.0809563 0.132757 0)
(-0.0879248 0.073154 0)
(-0.0880039 0.0291359 0)
(-0.0834656 0.00447294 0)
(-0.0754433 -0.00269457 0)
(-0.0655758 0.00168874 0)
(-0.0549007 0.0122957 0)
(-0.0440111 0.0252589 0)
(-0.0329632 0.0383838 0)
(-0.0215817 0.0505688 0)
(-0.00967002 0.0612557 0)
(0.00293908 0.0701617 0)
(0.0164936 0.0773079 0)
(0.0310398 0.0825498 0)
(0.0465125 0.0859206 0)
(0.06261 0.0870189 0)
(0.079045 0.0853385 0)
(0.0959394 0.0805418 0)
(0.0015275 0.420521 0)
(0.000573678 0.408487 0)
(-0.0119906 0.360063 0)
(-0.0264543 0.292705 0)
(-0.0443572 0.217367 0)
(-0.0592332 0.143654 0)
(-0.0687418 0.0782118 0)
(-0.0704022 0.0275915 0)
(-0.0676664 -0.00162905 0)
(-0.0608966 -0.0116061 0)
(-0.0519432 -0.00856391 0)
(-0.0419681 0.00163776 0)
(-0.031876 0.0145845 0)
(-0.0218 0.0276121 0)
(-0.0116342 0.0394983 0)
(-0.0012069 0.0496817 0)
(0.00968034 0.0579473 0)
(0.0211518 0.0642496 0)
(0.0333572 0.0686604 0)
(0.0462816 0.0712861 0)
(0.0597019 0.0719567 0)
(0.0733986 0.0702626 0)
(0.0874218 0.0657809 0)
(0.00737157 0.414305 0)
(0.014895 0.410899 0)
(0.0110209 0.370915 0)
(0.00215875 0.309835 0)
(-0.014033 0.235419 0)
(-0.0309299 0.157224 0)
(-0.0452774 0.0841164 0)
(-0.0498771 0.0280178 0)
(-0.0495431 -0.00597401 0)
(-0.0447538 -0.0191292 0)
(-0.0374221 -0.0177387 0)
(-0.0287581 -0.00804909 0)
(-0.019811 0.00492089 0)
(-0.0109841 0.0180392 0)
(-0.00219803 0.029819 0)
(0.00672257 0.039744 0)
(0.0158933 0.0475818 0)
(0.0254495 0.0533313 0)
(0.0355289 0.0571271 0)
(0.0461541 0.0591273 0)
(0.0572105 0.0594148 0)
(0.0685619 0.0577228 0)
(0.0802117 0.0535956 0)
(0.0132434 0.398063 0)
(0.028255 0.40452 0)
(0.0323266 0.373545 0)
(0.0294989 0.320164 0)
(0.0182779 0.252867 0)
(0.00361662 0.178587 0)
(-0.0129974 0.0989338 0)
(-0.0240043 0.0312728 0)
(-0.0282071 -0.00751059 0)
(-0.0262838 -0.0242888 0)
(-0.0214938 -0.0250427 0)
(-0.0148709 -0.0162191 0)
(-0.00757083 -0.00335355 0)
(-0.000293572 0.00983698 0)
(0.00691841 0.021641 0)
(0.0142051 0.0314488 0)
(0.0216862 0.0390285 0)
(0.0294274 0.0444054 0)
(0.0375139 0.0477225 0)
(0.0460317 0.0492227 0)
(0.0549558 0.0491271 0)
(0.0642101 0.0473633 0)
(0.0738134 0.0435345 0)
(0.0188771 0.372387 0)
(0.0400729 0.390847 0)
(0.0501536 0.369882 0)
(0.0516799 0.324488 0)
(0.0449259 0.263244 0)
(0.0337329 0.192598 0)
(0.0209533 0.115791 0)
(0.00789983 0.0454076 0)
(-0.00283828 -0.00373239 0)
(-0.00518607 -0.0260907 0)
(-0.00397178 -0.0296441 0)
(-0.000145987 -0.0222176 0)
(0.00491926 -0.00971108 0)
(0.0103551 0.00343774 0)
(0.015832 0.0151873 0)
(0.0213864 0.0248412 0)
(0.027093 0.032238 0)
(0.0330538 0.0373463 0)
(0.0393111 0.0403002 0)
(0.0459004 0.0413776 0)
(0.0528239 0.0408844 0)
(0.0601525 0.0389787 0)
(0.0679395 0.0353531 0)
(0.0234145 0.338358 0)
(0.0493505 0.371736 0)
(0.0632202 0.362278 0)
(0.0672207 0.325299 0)
(0.0637318 0.269778 0)
(0.0558196 0.20221 0)
(0.0465195 0.127438 0)
(0.0359435 0.0566457 0)
(0.0247756 0.0053898 0)
(0.0178053 -0.0225426 0)
(0.0151607 -0.0304897 0)
(0.0155057 -0.0253685 0)
(0.0177451 -0.0138096 0)
(0.0209397 -0.000936878 0)
(0.0244411 0.0106501 0)
(0.0281521 0.0200702 0)
(0.0321261 0.0272145 0)
(0.036346 0.0320671 0)
(0.0408489 0.0347334 0)
(0.0456411 0.0354262 0)
(0.050759 0.0345511 0)
(0.0562949 0.0324082 0)
(0.0623853 0.0288677 0)
(0.0253371 0.298296 0)
(0.0542138 0.349159 0)
(0.0698659 0.352511 0)
(0.0755935 0.323716 0)
(0.0752372 0.273336 0)
(0.0709923 0.208842 0)
(0.0654106 0.136382 0)
(0.0580592 0.0672789 0)
(0.0485835 0.0143347 0)
(0.0401893 -0.0165655 0)
(0.0346165 -0.0276967 0)
(0.0317109 -0.0251638 0)
(0.0308737 -0.0153598 0)
(0.0313931 -0.00321358 0)
(0.0327106 0.00805375 0)
(0.0344818 0.017188 0)
(0.0366519 0.0239841 0)
(0.0391964 0.028525 0)
(0.0420616 0.0308871 0)
(0.0452238 0.0312632 0)
(0.0486659 0.0300039 0)
(0.0525159 0.0275282 0)
(0.0570477 0.0239415 0)
(0.0238763 0.256899 0)
(0.0534993 0.326018 0)
(0.069087 0.341428 0)
(0.0772557 0.319391 0)
(0.0809216 0.27326 0)
(0.0810695 0.211657 0)
(0.0796392 0.141699 0)
(0.0757399 0.0749475 0)
(0.0685406 0.022929 0)
(0.0600802 -0.00918513 0)
(0.0527082 -0.0225027 0)
(0.0471676 -0.0220502 0)
(0.0434816 -0.0138347 0)
(0.0413604 -0.00295076 0)
(0.0403891 0.00747333 0)
(0.0401622 0.0161252 0)
(0.0405828 0.0224698 0)
(0.041506 0.0265946 0)
(0.042849 0.0286305 0)
(0.0445167 0.0286897 0)
(0.0464389 0.0270632 0)
(0.0487481 0.0242352 0)
(0.0518337 0.0204785 0)
(0.018485 0.218368 0)
(0.0476327 0.30509 0)
(0.0622052 0.328543 0)
(0.0743618 0.311157 0)
(0.0829034 0.268681 0)
(0.0879542 0.210017 0)
(0.0908261 0.143082 0)
(0.0900842 0.0797492 0)
(0.0848656 0.0302363 0)
(0.0767509 -0.00128455 0)
(0.0682241 -0.015442 0)
(0.0606334 -0.0164741 0)
(0.0545654 -0.00978977 0)
(0.0500579 -0.000195133 0)
(0.0469332 0.00916232 0)
(0.0448889 0.0169034 0)
(0.0436602 0.0226278 0)
(0.0431257 0.0262067 0)
(0.0430985 0.0278267 0)
(0.0434431 0.0275477 0)
(0.0440399 0.0255869 0)
(0.0449444 0.0223878 0)
(0.0466856 0.0183778 0)
(0.0079582 0.187932 0)
(0.0377115 0.286715 0)
(0.0526596 0.312673 0)
(0.0698882 0.29822 0)
(0.0833695 0.259184 0)
(0.0932822 0.203895 0)
(0.099947 0.140937 0)
(0.101555 0.0821662 0)
(0.0975893 0.0364413 0)
(0.0896569 0.00695654 0)
(0.080142 -0.00694451 0)
(0.0708863 -0.00885993 0)
(0.0629032 -0.00358229 0)
(0.0565553 0.00458719 0)
(0.0517511 0.0127369 0)
(0.0482133 0.0194245 0)
(0.0456121 0.0242464 0)
(0.0438213 0.0271855 0)
(0.042648 0.0282983 0)
(0.0418754 0.0276636 0)
(0.0413437 0.0253858 0)
(0.0410319 0.0218352 0)
(0.0415599 0.0175069 0)
(-0.005157 0.170568 0)
(0.025228 0.267345 0)
(0.0438958 0.292822 0)
(0.0658374 0.280535 0)
(0.0836937 0.245039 0)
(0.0976625 0.194075 0)
(0.10682 0.136414 0)
(0.109559 0.0833872 0)
(0.10595 0.0423902 0)
(0.097717 0.0158222 0)
(0.0872094 0.00282061 0)
(0.0765879 0.000333431 0)
(0.0672358 0.00428856 0)
(0.0597197 0.0109202 0)
(0.05392 0.0176307 0)
(0.0494772 0.0231075 0)
(0.0460475 0.026964 0)
(0.0433996 0.0291724 0)
(0.0413532 0.0297784 0)
(0.039725 0.0287861 0)
(0.0383003 0.0262475 0)
(0.0369608 0.0224053 0)
(0.0364251 0.0177584 0)
(-0.0124284 0.16706 0)
(0.0125378 0.242721 0)
(0.0368473 0.268755 0)
(0.0619852 0.258588 0)
(0.0832072 0.227016 0)
(0.0994753 0.181885 0)
(0.109103 0.130572 0)
(0.111661 0.0840058 0)
(0.107715 0.0484494 0)
(0.0989559 0.025416 0)
(0.08774 0.0137478 0)
(0.0763469 0.0107646 0)
(0.0663694 0.0131863 0)
(0.0584471 0.0179877 0)
(0.0524801 0.0230564 0)
(0.0479781 0.0272788 0)
(0.0444488 0.0302312 0)
(0.0415573 0.0317857 0)
(0.0390746 0.0319502 0)
(0.0368918 0.0306701 0)
(0.0348307 0.0279484 0)
(0.0327006 0.0239099 0)
(0.0312584 0.0190021 0)
(-0.00914052 0.169361 0)
(0.00669854 0.217897 0)
(0.0312583 0.241713 0)
(0.0566601 0.233436 0)
(0.0787382 0.206248 0)
(0.095176 0.168651 0)
(0.104287 0.124402 0)
(0.10625 0.0847724 0)
(0.101617 0.0549419 0)
(0.0922308 0.0355927 0)
(0.0806366 0.0252594 0)
(0.069181 0.0216481 0)
(0.0594647 0.0222205 0)
(0.0520724 0.0248722 0)
(0.0468028 0.0281308 0)
(0.0430714 0.0311023 0)
(0.040247 0.033297 0)
(0.0378681 0.0344205 0)
(0.0355676 0.0343816 0)