/*--------------------------------*- C++ -*----------------------------------*\
| =========                 |                                                 |
| \\      /  F ield         | OpenFOAM: The Open Source CFD Toolbox           |
|  \\    /   O peration     | Version:  2312                                  |
|   \\  /    A nd           | Website:  www.openfoam.com                      |
|    \\/     M anipulation  |                                                 |
\*---------------------------------------------------------------------------*/
FoamFile
{
    version     2.0;
    format      ascii;
    arch        "LSB;label=32;scalar=64";
    class       volScalarField;
    location    "4.75";
    object      alpha.oil;
}
// * * * * * * * * * * * * * * * * * * * * * * * * * * * * * * * * * * * * * //

dimensions      [0 0 0 0 0 0 0];

internalField   nonuniform List<scalar> 
2268
(
8.73712e-10
9.23837e-10
9.78917e-10
2.61316e-09
8.52844e-09
1.24909e-08
1.14015e-08
8.56749e-09
5.53577e-09
3.42169e-09
2.15206e-09
1.57359e-09
1.16694e-09
8.98237e-10
7.91531e-10
8.82496e-10
1.35118e-09
1.81879e-09
1.85696e-09
2.00694e-08
1.31638e-05
4.54242e-05
4.53955e-05
2.40712e-09
1.33743e-09
3.08253e-09
2.00591e-08
5.50197e-08
7.08375e-08
7.17229e-08
5.42703e-08
2.93489e-08
1.577e-08
8.21322e-09
5.04636e-09
3.21526e-09
2.70632e-09
2.46524e-09
2.75063e-09
4.40888e-09
9.75241e-09
2.02155e-08
1.06729e-08
2.16217e-06
3.15051e-05
4.01618e-05
1.6595e-08
1.3144e-08
4.8756e-09
2.6571e-08
6.0944e-08
7.54413e-08
7.57303e-08
6.41324e-08
3.1798e-08
1.30552e-08
1.04744e-08
5.48542e-09
4.0839e-09
5.32415e-09
6.28234e-09
3.94824e-09
5.13421e-09
2.26389e-07
3.76256e-07
3.5204e-07
7.55934e-08
2.60305e-06
3.55123e-06
1.69589e-08
1.39201e-07
3.50943e-06
7.40684e-07
3.94255e-09
3.94187e-09
3.94183e-09
3.94054e-09
3.94046e-09
3.93916e-09
3.93788e-09
3.93591e-09
3.93471e-09
3.93276e-09
3.93276e-09
3.93386e-09
4.10243e-09
4.4933e-08
2.2298e-07
2.29689e-07
4.33234e-08
1.65955e-12
6.59478e-10
0.00238561
0.00266361
0.00293821
0.00280032
0.00212602
0.000951755
0.000101497
6.47839e-06
5.9149e-05
0.000212998
0.000321407
0.000154453
6.69184e-05
0.000137934
7.71206e-05
3.93583e-09
3.93702e-09
4.7909e-08
3.87609e-08
1.54667e-08
6.62699e-09
4.96136e-10
5.16271e-08
0.00541071
0.0054966
0.00554656
0.00554688
0.00554656
0.00388398
0.000618094
9.52287e-06
0.000155965
0.000638628
0.000647013
0.0006022
0.000251908
0.000576743
0.00151774
0.000919786
0.000164975
1.66433e-08
1.70083e-08
1.7714e-05
5.05157e-06
2.08915e-09
4.76391e-08
0.000600581
0.000848911
0.00175793
0.00267439
0.00225397
0.00144184
0.000638246
7.87427e-05
6.86875e-05
0.000265077
0.000510614
0.000503796
0.000171226
0.000164126
0.00200645
0.00352111
0.00181179
0.00785828
0.042531
0.0649298
0.0553438
0.0143147
4.76826e-08
-2.24063e-41
-3.85683e-23
-1.72487e-23
4.97857e-09
2.78023e-09
1.44609e-08
3.94354e-05
4.93874e-05
3.5385e-05
6.68495e-05
0.00015485
0.00018083
0.000138514
0.000138552
0.00178143
0.00910485
0.0276136
0.0750416
0.0980266
0.0980241
0.0980276
0.0929031
0.00773735
0.0266629
0.0269469
0.0265948
0.0265921
0.0265893
0.0265862
0.0265968
0.0265996
0.0266023
0.0266049
0.0266074
0.02661
0.0277212
0.0286533
0.0284049
0.027399
0.0267931
0.0267713
0.0267713
0.0333081
0.0359286
0.0321133
0.0295178
0.0313052
0.0274776
0.026599
0.0266016
0.0283807
0.0291441
0.0298385
0.0527967
0.0764346
0.0987627
0.108127
0.118631
0.123003
0.124616
0.135951
0.231149
0.218148
0.187315
0.157814
0.159404
0.205136
0.22622
0.239476
0.269577
0.335866
0.418189
0.446993
0.477157
0.4774
0.467656
0.462398
0.444431
0.427034
0.427977
0.258006
0.246889
0.235522
0.178775
0.150891
0.148467
0.160758
0.209149
0.255896
0.292375
0.336343
0.451468
0.493673
0.493686
0.470432
0.24438
0.138011
0.0966839
0.343852
0.257905
0.0198775
0.0128129
0.00421866
0.00424416
0.0133197
0.0270242
0.0310238
0.0231029
0.0176763
0.0204253
0.0317332
0.203859
0.493688
0.451071
0.083678
0.029894
0.0298759
0.232467
0.119325
0.00410045
0.00398888
0.00781088
0.00774826
0.0165602
0.0112151
0.0111886
0.00662509
0.00387398
0.00387328
0.0118257
0.0170715
0.445384
0.451035
0.23264
0.0300419
0.0298945
0.0879251
0.0584185
0.00632189
0.00721118
0.0541739
0.0307532
0.0156541
0.0385158
0.0201566
0.00524824
0.00387259
0.00387297
0.00387327
0.0145247
0.24317
0.403161
0.186014
0.0521301
0.0405478
0.0385028
0.00388635
0.0039135
0.023106
0.088234
0.0879029
0.0421209
0.0409225
0.0250967
0.0151602
0.101982
0.0534768
0.00387376
0.00659201
0.0223685
0.0494051
0.044362
0.0510952
0.0421153
0.0357509
2.10284e-22
1.407e-23
-5.13095e-21
1.99167e-06
4.92516e-08
9.5062e-07
1.36305e-06
9.00475e-07
3.88976e-08
3.61343e-09
1.80227e-05
4.60793e-05
4.58626e-05
0.000149197
0.000609369
0.0140548
0.0264208
0.013634
0.0127407
0.0377486
0.0678917
0.0677922
0.0499059
0.00678923
0.0142395
0.0154614
0.00490496
2.41709e-05
-4.25233e-11
1.28064e-18
1.26299e-14
-2.32438e-27
3.33425e-27
1.63354e-24
4.22038e-07
-4.37617e-18
-1.61655e-07
1.73828e-05
0.000527669
0.00101444
0.000467235
0.000450679
0.000419045
0.000109654
1.15648e-20
-0.000132999
0.532706
0.571669
0.600966
0.472487
0.319899
0.21044
0.127731
0.137033
0.147332
0.115295
0.0828157
0.0615068
0.0630388
0.070188
0.0299886
0.000297341
0.00029814
0.0147802
0.0255112
0.0288944
0.0400807
0.0697519
0.173855
0.959593
0.98063
0.985758
0.947464
0.774727
0.706415
0.682286
0.695235
0.76319
0.817239
0.846558
0.839852
0.776099
0.69092
0.625291
0.601734
0.635716
0.705065
0.72511
0.711439
0.716247
0.771311
0.917242
0.97344
0.994141
0.961818
0.949214
0.950555
0.939353
0.923797
0.963304
0.996603
0.992662
0.99756
0.997681
0.991176
0.990025
0.994735
0.99783
0.998817
0.996436
0.984933
0.966309
0.968965
0.993936
0.999117
0.996893
0.99497
0.969431
0.970631
0.996201
0.970677
0.95674
0.998123
0.999688
0.999684
0.999681
0.999679
0.999678
0.999678
0.999648
0.999675
0.999675
0.999041
0.990069
0.984051
0.984931
0.994874
0.9986
0.998636
0.997429
0.996715
0.998771
0.999696
0.999618
0.999181
0.999697
0.999692
0.999688
0.999424
0.995305
0.990949
0.9935
0.989018
0.976826
0.957099
0.914879
0.847495
0.753982
0.684022
0.681205
0.766009
0.998705
0.999149
0.999692
0.999692
0.999697
0.999696
0.999697
0.999696
0.99906
0.993422
0.86645
0.726911
0.586086
0.457474
0.378308
0.32373
0.25953
0.184357
0.118933
0.0559768
0.0191232
0.01733
0.058551
0.999115
0.999316
0.999668
0.997608
0.996954
0.999457
0.999696
0.95252
0.69506
0.33444
0.1215
0.0434663
0.0105543
0.0001721
1.10169e-12
1.02455e-12
3.91432e-12
1.18339e-12
6.92572e-16
6.33508e-19
1.14523e-24
2.02493e-13
2.01788e-12
0.999115
0.998859
0.997145
0.99254
0.991902
0.963847
0.782545
0.435971
0.113702
-1.65078e-18
7.18727e-20
-7.13081e-20
1.94279e-06
2.30092e-06
6.01303e-06
7.5807e-06
8.50366e-06
4.47355e-06
8.1078e-08
1.51407e-07
5.06695e-07
1.87486e-06
4.06833e-06
0.98998
0.972492
0.909936
0.822475
0.680014
0.412433
0.117888
0.00278399
3.78799e-19
-2.29239e-10
3.46064e-08
6.85082e-08
1.57451e-08
1.14635e-06
1.4848e-05
5.40287e-05
4.31124e-05
1.79164e-05
3.74038e-07
2.59559e-08
3.42387e-07
4.04854e-06
1.42847e-05
0.296541
0.252017
0.179546
0.0944607
0.0317672
0.00110073
7.59076e-15
8.04848e-15
2.67056e-07
3.10783e-07
2.26812e-07
3.33425e-08
3.20122e-09
1.27176e-05
5.66103e-05
5.68602e-05
4.87097e-05
3.95836e-05
2.38947e-06
2.04166e-09
2.92529e-06
1.5271e-05
1.74747e-05
7.59087e-15
7.5909e-15
7.59081e-15
7.59089e-15
7.59081e-15
7.59086e-15
7.59068e-15
1.06809e-07
3.88139e-07
3.17884e-07
1.20014e-07
6.4877e-08
8.70501e-06
5.79321e-05
5.85551e-05
4.13487e-05
3.52852e-05
1.6127e-05
2.64113e-08
2.03749e-09
1.19836e-05
1.73606e-05
1.74857e-05
2.72208e-11
2.09985e-12
1.05253e-12
1.55022e-11
7.59087e-15
7.64505e-15
1.16324e-12
5.05263e-09
1.59347e-07
1.78215e-07
2.73255e-08
5.50807e-07
5.744e-05
5.85953e-05
4.57453e-05
2.7396e-06
3.35449e-09
2.03677e-09
2.03749e-09
2.03669e-09
8.77654e-06
1.739e-05
1.58235e-05
2.47102e-10
2.89781e-11
6.27323e-12
1.98861e-18
5.11056e-09
7.70846e-08
2.99054e-07
1.14653e-07
2.46021e-08
2.55882e-08
1.18468e-08
1.01992e-05
2.38748e-05
1.85887e-05
3.14895e-06
8.22208e-08
3.17026e-08
5.77377e-08
5.67777e-08
1.80341e-08
1.70585e-08
8.60568e-06
2.40975e-06
7.82255e-09
8.11083e-09
3.87024e-09
-3.12976e-12
4.31281e-08
3.26343e-07
3.89545e-07
3.88527e-07
1.45021e-07
5.54781e-08
6.81406e-07
3.40475e-06
2.19754e-07
7.85227e-09
7.83929e-09
8.1877e-09
7.47295e-08
1.4326e-07
1.42896e-07
3.62982e-08
2.73761e-08
1.96318e-07
3.83326e-07
1.76055e-08
2.81624e-08
4.37838e-08
4.1097e-08
1.49304e-07
3.3229e-07
3.89426e-07
3.89545e-07
2.24185e-07
1.66453e-07
4.64837e-07
8.1979e-09
2.52399e-08
1.62005e-08
1.18801e-08
1.4114e-08
1.03153e-08
1.19419e-08
3.82835e-09
2.38581e-09
2.33192e-09
5.10099e-07
6.58286e-07
2.50812e-08
2.82735e-08
5.68789e-08
8.91841e-08
1.26044e-07
1.65831e-07
1.72227e-07
1.70481e-07
1.02355e-07
8.07884e-08
2.04982e-08
8.04275e-09
7.85302e-09
8.75417e-09
6.82871e-09
5.00435e-09
3.35607e-09
2.50612e-09
2.39293e-09
2.14385e-09
2.13897e-09
1.84427e-07
6.17185e-07
1.67123e-08
2.12233e-08
3.494e-08
5.53793e-08
7.3648e-08
7.48902e-08
6.5688e-08
6.24183e-08
3.92554e-08
1.17981e-08
8.03638e-09
7.7986e-09
5.79209e-09
4.2817e-09
3.22809e-09
2.67896e-09
2.55432e-09
2.75169e-09
3.12416e-09
3.1402e-09
2.13688e-09
2.13257e-09
3.73966e-07
7.81065e-09
1.43373e-08
2.36882e-08
3.4826e-08
3.70658e-08
3.72863e-08
3.08704e-08
2.2789e-08
1.39273e-08
8.7598e-09
6.42982e-09
4.54027e-09
3.18271e-09
2.39971e-09
2.03195e-09
1.99987e-09
2.15854e-09
2.48693e-09
2.87334e-09
3.15356e-09
2.1343e-09
1.94488e-08
2.66442e-07
4.82152e-09
1.03811e-08
1.68033e-08
2.19694e-08
2.21972e-08
2.14038e-08
1.63999e-08
1.11642e-08
7.28657e-09
5.09625e-09
3.4912e-09
2.40353e-09
1.76198e-09
1.44219e-09
1.3459e-09
1.41646e-09
1.59913e-09
1.88675e-09
2.31953e-09
3.01071e-09
3.6409e-09
3.63668e-09
3.50299e-08
3.03981e-09
7.76005e-09
1.20537e-08
1.46269e-08
1.45349e-08
1.23792e-08
8.92528e-09
6.02419e-09
3.91417e-09
2.58319e-09
1.73157e-09
1.20911e-09
9.21088e-10
7.87889e-10
7.76493e-10
8.54272e-10
1.00607e-09
1.24169e-09
1.59878e-09
2.17358e-09
2.75992e-09
3.65387e-09
6.36863e-09
2.7645e-09
5.74696e-09
8.22297e-09
9.03836e-09
8.23798e-09
6.58837e-09
4.54525e-09
2.97009e-09
1.85137e-09
1.20117e-09
8.1578e-10
5.86796e-10
4.59094e-10
4.02131e-10
4.08736e-10
4.70693e-10
5.85478e-10
7.62589e-10
9.93392e-10
1.35977e-09
1.91494e-09
2.57141e-09
5.94648e-09
2.6371e-09
4.27877e-09
5.47175e-09
5.43764e-09
4.49539e-09
3.30533e-09
2.18122e-09
1.40237e-09
9.0939e-10
6.27667e-10
4.51341e-10
3.34076e-10
2.57362e-10
2.16326e-10
2.13579e-10
2.49899e-10
3.23931e-10
4.40545e-10
6.0826e-10
8.44168e-10
1.04934e-09
1.71425e-09
2.49439e-09
2.56391e-09
3.31149e-09
3.65094e-09
3.30645e-09
2.55972e-09
1.79774e-09
1.17695e-09
8.11936e-10
6.06667e-10
4.76748e-10
3.70645e-10
2.76262e-10
1.98724e-10
1.45683e-10
1.2293e-10
1.31903e-10
1.71553e-10
2.42969e-10
3.47078e-10
4.78793e-10
6.77464e-10
8.40308e-10
1.3981e-09
2.53084e-09
2.65796e-09
2.5928e-09
2.21317e-09
1.73244e-09
1.26566e-09
8.47503e-10
6.59512e-10
5.80421e-10
5.0075e-10
4.04667e-10
3.00128e-10
2.04335e-10
1.31227e-10
8.78847e-11
7.44641e-11
8.84676e-11
1.27648e-10
1.90052e-10
2.79025e-10
3.67235e-10
5.7511e-10
7.16853e-10
2.54266e-09
2.31872e-09
2.09012e-09
1.80046e-09
1.54158e-09
1.21098e-09
7.56006e-10
6.7327e-10
6.33904e-10
5.64794e-10
4.64261e-10
3.45828e-10
2.32177e-10
1.41081e-10
8.06174e-11
5.09883e-11
4.71595e-11
6.49654e-11
1.0061e-10
1.54225e-10
2.33887e-10
3.14054e-10
4.78846e-10
2.57604e-09
2.17532e-09
1.92562e-09
1.75567e-09
1.57363e-09
1.18657e-09
7.21558e-10
7.26691e-10
6.83792e-10
6.12394e-10
5.08052e-10
3.83574e-10
2.59573e-10
1.57791e-10
8.47728e-11
4.3639e-11
2.9287e-11
3.40811e-11
5.44723e-11
9.03576e-11
1.34054e-10
2.31436e-10
3.05297e-10
2.65324e-09
2.1501e-09
1.94183e-09
2.25503e-09
4.65452e-09
8.60564e-10
7.33062e-10
9.39195e-10
7.01924e-10
6.17925e-10
5.12655e-10
3.92894e-10
2.71901e-10
1.67664e-10
9.02467e-11
4.37565e-11
2.23945e-11
1.96287e-11
3.0432e-11
5.07613e-11
9.5889e-11
1.42804e-10
2.37413e-10
2.66385e-09
2.30652e-09
1.91318e-09
1.91146e-09
1.05408e-08
5.72605e-10
1.00623e-09
1.90723e-09
6.47049e-10
5.39027e-10
4.58194e-10
3.64944e-10
2.59681e-10
1.65651e-10
9.17461e-11
4.45162e-11
2.0147e-11
1.31719e-11
1.8226e-11
3.36065e-11
5.61308e-11
1.14214e-10
1.63471e-10
3.05047e-09
4.31564e-09
9.53935e-09
1.84e-08
3.94925e-09
4.8017e-10
6.77791e-10
4.00914e-09
5.02566e-10
4.61287e-10
3.89643e-10
3.13621e-10
2.27173e-10
1.47909e-10
8.63667e-11
4.32663e-11
1.89285e-11
9.83129e-12
1.12671e-11
2.03552e-11
4.40794e-11
7.40929e-11
1.30593e-10
3.49657e-09
5.07291e-09
5.20266e-08
1.71015e-07
3.52376e-09
5.52263e-09
2.11175e-08
1.88175e-09
4.01256e-10
4.10298e-10
3.14639e-10
2.48128e-10
1.79194e-10
1.20397e-10
7.32095e-11
3.8547e-11
1.72236e-11
7.71882e-12
6.98717e-12
1.30433e-11
2.48371e-11
5.82143e-11
8.96201e-11
5.05321e-09
6.42683e-09
3.28932e-08
2.37222e-07
7.67794e-09
1.23228e-08
5.40671e-08
4.13073e-10
4.1246e-10
3.52474e-10
2.36011e-10
1.82471e-10
1.31672e-10
8.79413e-11
5.51623e-11
3.08468e-11
1.45239e-11
6.13055e-12
4.21732e-12
7.5468e-12
1.71755e-11
3.17653e-11
6.79294e-11
6.49559e-09
2.08624e-08
2.15401e-08
2.5133e-07
2.07043e-08
4.54275e-08
6.02096e-08
7.5534e-09
5.23498e-10
2.87102e-10
1.64761e-10
1.25474e-10
8.95235e-11
5.80582e-11
3.64483e-11
2.16295e-11
1.10489e-11
4.75697e-12
2.61604e-12
4.0045e-12
8.46836e-12
2.41008e-11
3.77401e-11
1.30553e-08
1.09172e-07
6.47543e-07
2.53659e-07
8.38896e-08
1.18997e-07
5.59039e-08
9.5239e-09
8.82598e-10
2.20217e-10
1.08486e-10
8.20684e-11
5.61552e-11
3.46217e-11
2.10058e-11
1.29058e-11
7.23394e-12
3.35433e-12
1.65305e-12
2.0896e-12
4.57451e-12
1.00004e-11
2.46613e-11
1.35962e-08
1.86719e-07
8.3749e-07
6.92399e-07
1.23807e-07
1.4091e-07
5.80845e-08
1.13166e-08
1.35657e-09
1.82297e-10
6.7452e-11
4.93113e-11
3.27455e-11
1.87567e-11
1.05485e-11
6.41649e-12
3.94901e-12
2.06589e-12
9.98507e-13
1.08829e-12
2.4717e-12
6.19283e-12
1.18496e-11
1.51598e-08
2.36568e-07
8.3749e-07
8.37155e-07
1.39334e-07
1.43624e-07
5.86477e-08
1.48372e-08
2.18847e-09
2.06556e-10
3.99579e-11
2.73357e-11
1.7726e-11
9.32312e-12
4.67574e-12
2.61712e-12
1.68473e-12
1.02166e-12
5.32763e-13
4.3849e-13
9.12554e-13
2.14385e-12
6.47885e-12
1.32341e-08
2.04758e-07
8.3749e-07
8.3747e-07
1.7008e-07
1.06335e-07
4.70051e-08
1.5222e-08
2.83866e-09
2.74645e-10
2.46924e-11
1.34473e-11
8.66503e-12
4.30132e-12
1.8838e-12
9.00733e-13
5.46718e-13
3.78836e-13
2.38269e-13
1.87877e-13
3.82589e-13
9.93184e-13
2.19048e-12
1.02806e-08
1.44537e-07
8.3749e-07
8.13626e-07
1.62248e-07
7.18335e-08
3.22541e-08
1.14745e-08
2.42411e-09
2.75474e-10
1.64008e-11
5.64241e-12
3.71123e-12
1.77986e-12
6.90435e-13
2.59219e-13
1.32929e-13
9.79956e-14
7.96637e-14
6.67326e-14
1.21754e-13
3.19609e-13
8.22862e-13
5.44903e-09
1.13265e-07
8.37472e-07
3.39744e-07
1.13501e-07
5.70607e-08
2.55358e-08
8.0869e-09
1.59964e-09
1.70228e-10
8.03613e-12
1.80633e-12
1.26716e-12
6.17637e-13
2.22329e-13
6.82604e-14
2.52144e-14
1.68999e-14
1.73606e-14
2.05402e-14
3.46182e-14
1.0483e-13
2.565e-13
4.3165e-09
1.10248e-07
5.09747e-07
1.88261e-07
7.83841e-08
4.2593e-08
1.62487e-08
3.8019e-09
5.71046e-10
4.36725e-11
1.48145e-12
3.66359e-13
2.93487e-13
1.51416e-13
5.34095e-14
1.3983e-14
3.52815e-15
1.94712e-15
2.7959e-15
4.66372e-15
9.60463e-15
2.83101e-14
7.79899e-14
4.3165e-09
7.99693e-08
1.2887e-07
6.6738e-08
4.64582e-08
2.04098e-08
4.20917e-09
5.44652e-10
4.00057e-11
1.45627e-12
4.11056e-14
3.57093e-14
3.40296e-14
1.93067e-14
7.04296e-15
1.63088e-15
3.03308e-16
1.43477e-16
3.30037e-16
9.22664e-16
2.5084e-15
7.91278e-15
2.07044e-14
0.0343588
0.0141009
0.0109003
0.00603896
-6.16791e-05
6.58865e-05
0.00109155
0.00837687
0.225239
0.217263
0.32527
0.553189
0.993474
0.998459
0.996276
0.993631
0.999117
0.998938
0.999123
0.999123
0.999117
0.999123
0.999123
0.999118
0.84502
0.849041
0.843632
0.844521
0.104742
0.109386
0.105145
0.108837
1.12736e-12
4.79089e-13
3.16008e-14
6.18484e-16
2.34411e-06
1.05887e-06
2.46646e-07
4.34762e-08
9.25298e-06
7.28677e-06
3.38422e-06
2.47161e-07
1.70852e-05
1.76383e-05
1.69445e-05
7.49183e-06
1.74617e-05
1.66569e-05
1.67613e-05
1.57233e-05
8.89808e-06
1.21182e-05
1.14587e-05
6.90068e-06
2.1338e-07
2.04514e-07
1.20207e-06
1.1783e-05
2.29187e-07
1.58479e-06
1.34754e-05
1.36033e-05
2.42091e-07
1.78153e-07
8.23213e-06
1.27369e-05
3.30861e-07
1.7895e-07
5.57388e-07
4.90437e-07
2.64743e-07
1.80142e-07
1.0001e-07
6.24358e-08
2.76444e-07
2.53571e-07
1.26335e-07
4.50389e-08
9.65222e-08
1.00473e-07
9.65329e-08
2.6803e-08
1.49011e-08
2.47399e-08
2.18491e-08
1.70363e-08
7.28764e-09
7.05576e-09
1.14072e-08
1.68658e-08
3.23441e-09
4.6872e-09
5.58597e-09
8.2739e-09
1.74948e-09
1.74679e-09
2.41536e-09
2.9067e-09
8.94249e-10
1.10137e-09
1.16517e-09
1.43511e-09
5.61961e-10
6.12298e-10
7.65597e-10
8.41172e-10
3.94843e-10
4.76946e-10
5.28646e-10
6.21135e-10
2.95374e-10
3.43542e-10
4.304e-10
4.70447e-10
2.21912e-10
2.89295e-10
3.29676e-10
3.98378e-10
1.75449e-10
2.13418e-10
2.7595e-10
3.06145e-10
1.34719e-10
1.73926e-10
1.99328e-10
2.50016e-10
9.50082e-11
1.14204e-10
1.51239e-10
1.63105e-10
6.69269e-11
7.92412e-11
9.15047e-11
1.18541e-10
3.58853e-11
4.49895e-11
5.84884e-11
6.35743e-11
2.04185e-11
2.48747e-11
2.96471e-11
3.75361e-11
9.60229e-12
1.2159e-11
1.4923e-11
1.71318e-11
4.07936e-12
4.84408e-12
6.00788e-12
7.47822e-12
1.36184e-12
1.74843e-12
2.1374e-12
2.57126e-12
4.32646e-13
5.46925e-13
6.99031e-13
8.4473e-13
1.25482e-13
1.56756e-13
1.85893e-13
2.19678e-13
3.10201e-14
3.37021e-14
3.81973e-14
4.12174e-14
0.00397986
0.00390911
0.03049
0.0882622
0.0831233
0.0405007
0.0256494
0.0253645
0.189566
0.53106
0.507499
0.31078
0.00659523
0.0103928
0.0177547
0.0136921
0.0404442
0.0357401
0.0357379
0.0305252
0.019895
0.080256
0.071692
0.0226836
0.022772
0.0226336
0.213499
0.827334
0.938736
0.883806
0.803137
0.242973
0.0193181
0.0130662
0.0131156
0.0254719
0.0366804
0.0357379
0.665404
0.484313
0.313122
0.210475
0.135555
0.127998
0.425191
0.96663
0.989716
0.990696
0.928174
0.889034
0.883455
0.595663
0.286555
0.180852
0.131706
0.12276
0.101221
0.992646
0.910854
0.662192
0.609691
0.654111
0.915317
0.995274
0.997776
0.997778
0.997779
0.985725
0.938331
0.987864
0.991937
0.930925
0.84028
0.784627
0.830042
0.872436
0.999107
0.986974
0.821254
0.74047
0.826507
0.987853
0.997778
0.997779
0.997779
0.997779
0.997794
0.997316
0.994633
0.994139
0.997776
0.997779
0.997779
0.994686
0.992146
0.999115
0.999107
0.906051
0.747708
0.760925
0.917927
0.986871
0.997778
0.997778
0.997751
0.9978
0.997799
0.99779
0.997727
0.997779
0.997779
0.997779
0.997567
0.98933
0.847672
0.852122
0.853796
0.806377
0.771379
0.723858
0.815259
0.912202
0.94463
0.920283
0.960849
0.996191
0.996457
0.99677
0.997587
0.997779
0.997701
0.954373
0.89506
0.113109
0.120794
0.138185
0.150251
0.144323
0.145303
0.161495
0.204107
0.262626
0.245284
0.289082
0.386768
0.455354
0.49788
0.590433
0.61751
0.484757
0.289548
0.293274
9.18473e-18
9.93499e-18
2.32691e-17
1.69746e-25
4.28178e-27
-7.29873e-17
1.11747e-20
-4.89181e-21
4.72609e-20
1.45067e-11
9.41196e-11
9.31137e-11
0.000617972
0.00204048
0.00991085
0.0189927
0.00245342
-1.78411e-19
1.51429e-18
8.85465e-18
1.23732e-08
2.17211e-08
2.99491e-08
5.02704e-08
6.74131e-25
5.56587e-15
4.42635e-12
1.54685e-07
6.82819e-08
4.35842e-08
2.85601e-07
8.8392e-08
-2.12328e-09
-5.54834e-10
-1.14987e-20
-2.21655e-08
2.5981e-06
1.003e-05
2.46647e-08
4.81587e-08
8.61792e-08
2.27528e-08
7.76572e-08
3.37533e-06
4.3346e-05
2.37943e-05
1.6317e-07
9.47448e-07
1.59955e-07
3.66575e-07
1.56533e-05
2.75415e-05
4.60222e-06
-4.42963e-24
7.2295e-06
0.000105526
8.14482e-05
1.05375e-07
4.59145e-08
9.4883e-08
2.19026e-08
2.19156e-08
8.23771e-05
0.000216868
0.000189117
6.52429e-06
2.8213e-07
1.58072e-07
6.34099e-07
4.72645e-06
9.09842e-05
0.000109392
0.000106091
0.00010351
0.000118562
0.000114484
5.44982e-07
4.61663e-08
1.36535e-07
2.19034e-08
2.48192e-05
0.000215865
0.000217291
0.000217246
0.000121321
4.55879e-06
3.26254e-05
7.35e-05
7.64181e-06
1.99445e-05
0.000105893
0.000118221
0.00011876
0.000118757
3.31872e-05
5.85741e-06
3.29825e-06
4.09806e-07
1.7688e-05
0.000110157
0.000217293
0.000217292
0.000212631
0.00020824
4.90829e-05
0.000144301
0.000163956
0.000109689
1.40078e-05
3.30595e-05
0.000118517
0.000118341
4.30945e-05
1.06021e-05
1.23115e-05
8.82267e-06
2.36798e-05
5.59259e-05
0.000158613
0.00021677
0.000104796
3.8729e-05
9.33521e-05
0.000131141
0.000108444
3.80975e-05
4.62253e-05
1.40102e-05
6.8271e-05
9.60256e-05
2.59344e-05
8.50272e-06
1.05407e-05
8.77776e-06
4.82956e-06
5.1178e-05
8.36705e-05
0.000157985
7.64532e-05
3.53736e-06
3.54376e-06
3.53374e-06
5.38306e-06
6.92424e-06
1.12667e-05
2.84917e-05
2.84473e-05
2.77487e-05
7.14032e-06
7.10376e-06
8.03159e-06
1.32019e-05
1.47708e-07
1.36745e-06
1.87874e-05
6.98738e-05
6.24599e-05
3.54237e-06
3.54409e-06
3.53847e-06
3.63309e-06
3.6421e-06
4.29404e-06
1.95852e-05
2.16262e-05
1.6294e-05
1.02081e-05
9.71926e-06
7.95854e-06
2.12199e-06
1.32029e-05
1.46457e-07
1.31254e-06
6.00915e-06
1.09175e-05
4.9196e-06
3.54634e-06
3.54405e-06
3.68735e-06
6.28347e-06
6.58237e-06
5.88076e-06
5.83509e-06
5.86312e-06
8.57819e-06
1.64594e-06
9.79255e-06
8.67824e-06
2.12263e-06
4.78157e-06
1.45937e-07
2.46919e-07
3.59102e-06
5.31889e-06
4.51864e-06
4.18642e-06
5.72738e-06
5.24812e-06
4.79972e-06
1.0537e-05
2.06154e-05
2.82762e-05
2.7424e-05
3.21214e-06
1.20508e-06
3.86842e-06
2.02255e-05
3.21228e-06
1.34996e-07
3.33087e-08
3.14095e-08
3.00196e-08
1.11352e-06
1.01522e-05
1.20397e-05
1.2182e-05
1.22023e-05
2.88875e-06
7.42481e-07
2.31588e-05
3.7315e-05
3.73148e-05
3.59525e-05
7.65402e-06
4.25685e-08
2.1569e-05
1.49198e-05
1.34996e-07
2.42556e-08
6.31242e-08
5.06403e-08
5.05465e-08
1.38797e-07
3.9006e-06
5.86608e-06
2.27681e-06
1.39925e-07
4.79154e-08
2.56335e-06
1.78144e-05
3.72372e-05
3.65009e-05
2.42489e-05
1.4083e-08
2.15031e-05
1.99644e-05
1.42917e-07
3.45474e-08
6.63254e-08
6.74729e-08
5.9995e-08
6.3298e-08
3.4236e-08
3.42129e-08
3.33082e-08
7.92491e-08
4.82785e-08
1.61421e-08
1.60977e-08
8.29292e-07
1.13918e-05
7.05578e-06
1.50719e-08
1.14159e-05
1.2538e-05
6.15617e-07
2.84631e-08
3.79011e-08
4.61664e-08
5.10889e-08
4.7027e-08
4.10542e-08
3.41897e-08
2.47464e-08
2.62742e-08
2.99023e-08
3.09544e-08
2.50632e-08
1.41277e-08
1.40762e-08
1.40194e-08
1.39757e-08
5.1021e-06
5.65829e-06
7.23186e-07
1.10717e-08
1.43595e-08
1.93884e-08
2.53517e-08
2.76867e-08
2.89853e-08
2.8459e-08
2.43416e-08
2.35978e-08
2.71859e-08
3.50275e-08
4.15471e-08
3.65078e-08
2.25414e-08
1.64616e-08
1.39145e-08
3.38001e-06
3.45939e-06
3.66873e-07
4.16634e-09
4.99958e-09
6.37775e-09
7.93551e-09
9.84117e-09
1.16659e-08
1.35039e-08
1.48782e-08
1.61344e-08
1.96328e-08
2.93727e-08
4.52041e-08
5.6054e-08
3.37128e-08
5.19211e-08
4.98069e-07
7.83801e-07
2.92577e-07
1.87067e-07
1.65029e-09
1.98346e-09
2.40162e-09
2.9019e-09
3.56384e-09
4.55998e-09
5.98195e-09
7.69307e-09
9.30651e-09
1.21066e-08
1.87366e-08
2.94412e-08
3.87987e-08
2.73238e-08
3.69714e-08
5.25801e-07
2.58447e-07
1.15019e-07
8.41511e-08
9.87504e-10
1.14668e-09
1.38026e-09
1.67401e-09
2.13083e-09
2.71962e-09
3.49565e-09
4.60112e-09
6.2611e-09
8.70844e-09
1.25819e-08
1.74545e-08
2.26493e-08
2.5116e-08
4.80558e-08
3.29284e-07
2.12961e-07
9.22746e-08
8.29365e-08
6.83743e-10
8.36143e-10
1.03505e-09
1.29325e-09
1.65028e-09
2.15229e-09
2.83888e-09
3.6819e-09
4.98595e-09
7.00491e-09
1.04039e-08
1.38964e-08
1.73584e-08
3.70683e-08
8.43247e-08
1.64696e-07
1.2149e-07
8.55794e-08
5.36462e-08
5.59212e-10
6.95397e-10
8.84773e-10
1.13604e-09
1.50093e-09
2.01349e-09
2.69659e-09
3.5882e-09
4.72719e-09
6.27327e-09
8.57245e-09
1.00356e-08
1.3588e-08
5.55232e-08
9.2347e-08
9.45175e-08
5.67421e-08
4.04142e-08
4.31821e-08
4.52785e-10
5.90883e-10
7.7412e-10
1.03551e-09
1.4404e-09
2.04109e-09
2.93828e-09
4.14116e-09
5.59041e-09
7.10326e-09
9.42074e-09
1.00157e-08
1.16718e-08
6.43415e-08
7.62137e-08
4.03831e-08
3.0064e-08
2.64068e-08
4.64199e-08
3.75832e-10
4.91275e-10
6.63302e-10
9.32535e-10
1.37987e-09
2.11129e-09
3.33643e-09
5.08448e-09
7.17721e-09
9.31125e-09
1.33326e-08
1.3572e-08
1.06496e-08
3.75781e-08
5.45845e-08
2.66321e-08
2.66541e-08
2.63698e-08
4.87421e-08
2.84086e-10
3.87842e-10
5.40526e-10
8.00018e-10
1.27899e-09
2.13394e-09
3.74101e-09
6.39364e-09
9.982e-09
1.42468e-08
2.24067e-08
2.51558e-08
1.06272e-08
1.40599e-08
3.48548e-08
4.52799e-08
2.64407e-08
1.20877e-07
4.84888e-08
2.08529e-10
2.82206e-10
4.1097e-10
6.44524e-10
1.11386e-09
2.05889e-09
3.95611e-09
7.46463e-09
1.2987e-08
2.06621e-08
5.0382e-08
1.27043e-07
6.2827e-08
1.34485e-08
1.61176e-08
9.25632e-08
1.83224e-07
2.17503e-07
1.08791e-06
1.34535e-10
1.9063e-10
2.87713e-10
4.80458e-10
9.06224e-10
1.85208e-09
3.92806e-09
8.11588e-09
1.51401e-08
2.45532e-08
6.8872e-08
3.21478e-07
8.56858e-07
5.06025e-07
1.685e-08
6.10781e-08
2.39559e-07
3.66507e-07
2.65362e-06
8.18094e-11
1.14639e-10
1.79517e-10
3.232e-10
6.64904e-10
1.50127e-09
3.49659e-09
7.85893e-09
1.60571e-08
2.83195e-08
7.00583e-08
2.48056e-07
2.7751e-06
6.81339e-06
2.16894e-06
6.05113e-08
1.889e-07
3.98417e-07
2.81241e-06
4.30216e-11
6.2402e-11
1.00454e-10
1.91439e-10
4.30729e-10
1.06913e-09
2.70891e-09
6.514e-09
1.4107e-08
2.77972e-08
6.56955e-08
2.36763e-07
2.04069e-06
6.81327e-06
6.72959e-06
9.59795e-07
1.67193e-07
3.39988e-07
2.69885e-06
2.05239e-11
2.99206e-11
4.9334e-11
9.93504e-11
2.41775e-10
6.53562e-10
1.79143e-09
4.6185e-09
1.06716e-08
2.2317e-08
5.26353e-08
1.36939e-07
4.66679e-07
3.3855e-06
6.81555e-06
5.61502e-06
1.67294e-07
2.03181e-07
1.12374e-06
8.68636e-12
1.26887e-11
2.11993e-11
4.43009e-11
1.13938e-10
3.33678e-10
9.95316e-10
2.78772e-09
7.05753e-09
1.59094e-08
3.29164e-08
8.07765e-08
1.88198e-07
7.64994e-07
5.22827e-06
6.54261e-06
3.98471e-06
5.66591e-07
1.62784e-06
3.18403e-12
4.65888e-12
7.74975e-12
1.6047e-11
4.27869e-11
1.34155e-10
4.37288e-10
1.33341e-09
3.60821e-09
8.8339e-09
1.91213e-08
4.26956e-08
9.55307e-08
1.81847e-07
7.748e-07
5.51245e-06
5.51171e-06
2.32692e-06
2.38848e-06
9.76713e-13
1.36307e-12
2.31354e-12
4.89055e-12
1.35393e-11
4.59746e-11
1.69229e-10
6.02893e-10
1.93639e-09
5.38904e-09
1.36094e-08
2.9712e-08
6.86525e-08
1.42517e-07
2.90226e-07
8.65695e-07
2.59987e-06
1.96971e-06
1.14683e-06
2.4363e-13
3.34578e-13
5.25883e-13
1.03683e-12
2.73333e-12
9.44136e-12
3.8299e-11
1.59533e-10
6.12447e-10
2.06268e-09
6.20095e-09
1.63286e-08
4.16973e-08
9.4672e-08
1.64448e-07
2.46545e-07
4.45141e-07
4.4831e-07
1.51154e-07
4.33981e-14
5.45291e-14
7.97453e-14
1.44991e-13
3.31107e-13
9.86848e-13
3.84473e-12
1.75552e-11
8.0651e-11
3.21084e-10
1.00549e-09
2.86038e-09
7.21597e-09
2.34873e-08
8.34575e-08
1.37245e-07
1.11174e-07
1.11164e-07
1.04596e-07
)
;

boundaryField
{
    leftWall
    {
        type            zeroGradient;
    }
    rightWall
    {
        type            zeroGradient;
    }
    lowerWall
    {
        type            zeroGradient;
    }
    atmosphere
    {
        type            inletOutlet;
        inletValue      uniform 0;
        value           nonuniform List<scalar> 
46
(
4.3165e-09
7.99693e-08
1.2887e-07
6.6738e-08
4.64583e-08
2.04098e-08
0
0
0
0
0
0
0
0
0
0
0
0
0
9.22664e-16
2.5084e-15
7.91278e-15
2.07044e-14
0
0
0
0
0
0
0
0
0
0
0
0
0
0
0
0
0
0
8.34575e-08
1.37245e-07
1.11174e-07
1.11164e-07
1.04596e-07
)
;
    }
    defaultFaces
    {
        type            empty;
    }
}


// ************************************************************************* //
