/*--------------------------------*- C++ -*----------------------------------*\
| =========                 |                                                 |
| \\      /  F ield         | OpenFOAM: The Open Source CFD Toolbox           |
|  \\    /   O peration     | Version:  2312                                  |
|   \\  /    A nd           | Website:  www.openfoam.com                      |
|    \\/     M anipulation  |                                                 |
\*---------------------------------------------------------------------------*/
FoamFile
{
    version     2.0;
    format      ascii;
    arch        "LSB;label=32;scalar=64";
    class       volScalarField;
    location    "4.75";
    object      alpha.air;
}
// * * * * * * * * * * * * * * * * * * * * * * * * * * * * * * * * * * * * * //

dimensions      [0 0 0 0 0 0 0];

internalField   nonuniform List<scalar> 
2268
(
9.7769e-10
9.99319e-10
9.59902e-10
9.3932e-10
9.52686e-10
9.88496e-10
7.91205e-10
4.61567e-10
2.24724e-10
1.17365e-10
1.05636e-10
1.05149e-10
1.06821e-10
1.09194e-10
1.17108e-10
1.36775e-10
1.73775e-10
2.08389e-10
2.13916e-10
1.61295e-10
2.15624e-10
1.81188e-07
5.0196e-07
1.24518e-09
1.45971e-09
1.59465e-09
2.1746e-09
3.48759e-09
6.11033e-09
6.44473e-09
4.15503e-09
2.34898e-09
1.37815e-09
7.73649e-10
5.93111e-10
5.4966e-10
5.33789e-10
5.2684e-10
5.16881e-10
6.04465e-10
9.21644e-10
1.25134e-09
6.93492e-10
1.26603e-09
6.15821e-07
7.5651e-07
3.078e-09
2.84961e-09
3.32851e-09
2.17556e-09
2.17657e-09
1.65341e-08
2.07745e-08
1.88997e-08
2.17527e-08
1.29722e-08
5.58177e-09
2.21101e-09
1.709e-09
1.54443e-09
1.5284e-09
5.25941e-10
1.32967e-09
3.01434e-09
3.27163e-09
7.27754e-11
2.58234e-08
4.02233e-07
6.30648e-07
2.91861e-09
2.85113e-09
4.74437e-09
5.20575e-06
3.55526e-06
1.65546e-08
1.65692e-08
1.65839e-08
1.65992e-08
7.11718e-07
1.53175e-09
1.53176e-09
1.5309e-09
1.52994e-09
1.52937e-09
1.37815e-07
4.47614e-08
7.02754e-09
1.31554e-09
8.99062e-11
3.29828e-08
3.93957e-08
5.18286e-08
0.000447227
0.000478645
0.000633704
0.00080317
0.000789575
0.000617857
0.000363954
0.000136474
4.7252e-06
5.2048e-06
3.45999e-05
6.37192e-05
4.86593e-05
1.50505e-05
1.21372e-06
2.282e-06
1.93586e-06
6.85951e-07
3.38303e-11
4.1326e-11
7.41035e-09
9.11478e-12
3.94772e-09
0.00129301
0.00132564
0.00132745
0.00132744
0.00132745
0.00132744
0.00132745
0.000984519
0.000176692
5.2004e-06
9.81656e-05
0.000163158
0.000163158
0.000137969
4.5909e-05
2.28406e-06
4.63049e-06
0.000134772
0.00013081
6.15049e-07
4.16059e-10
4.16592e-10
4.16004e-10
0.000403476
0.000384095
0.000529384
0.00103784
0.00130972
0.00117839
0.000908752
0.000697295
0.000396377
6.43936e-05
6.50367e-05
0.000143981
0.000143922
0.000137692
9.60805e-05
2.49558e-05
1.59777e-05
4.3511e-05
0.00371789
0.00669846
0.00565688
0.00360845
0.00127201
0.000261215
0.000261428
0.000261099
0.00026102
0.000260068
0.000247964
0.000211993
0.000197894
0.000216823
0.000172804
8.54426e-05
5.45961e-05
3.93054e-05
2.48462e-05
2.26591e-05
6.87943e-05
0.000320434
0.00188497
0.00691657
0.0119573
0.0119569
0.0119188
0.00959422
0.000235791
0.001202
0.00687286
0.0082085
0.00820969
0.00550064
0.0033744
0.00225526
0.00225435
0.00225246
0.00225404
0.00224993
0.00228569
0.00228501
0.00242972
0.00354597
0.00480256
0.00557215
0.00558231
0.00023587
0.000236219
0.00122844
0.00367431
0.00303226
0.00677797
0.00794426
0.00594927
0.00312736
0.00228912
0.00225022
0.00224822
0.00224688
0.00224704
0.00372724
0.00885089
0.011036
0.00817717
0.00700282
0.00150066
0.0026779
0.00353018
0.00428007
0.00321238
0.00518772
0.0133539
0.0135094
0.00988886
0.00391806
0.00429462
0.00605353
0.00824714
0.0123261
0.0218846
0.0264345
0.0204437
0.0130611
0.015722
0.00921593
0.0122416
0.0222437
0.0232905
0.0216324
0.0147376
0.0137852
0.020155
0.0201761
0.0197168
0.0209672
0.0241224
0.0254063
0.0257511
0.0264346
0.0264252
0.0212057
0.0265414
0.0199767
0.00944616
0.0109798
0.0258734
0.021832
0.0176401
0.0415344
0.0415405
0.0136158
0.00833524
0.00751104
0.00751978
0.00932984
0.0218022
0.0264297
0.0264233
0.0259628
0.0515878
0.0516856
0.0345784
0.0056223
0.00475907
0.00629278
0.00192436
0.00192437
0.0266992
0.0395774
0.00902487
0.00833849
0.011076
0.0113431
0.00836426
0.00818992
0.0216882
0.0215013
0.0163085
0.077913
0.0831179
0.0346937
0.00666604
0.00239919
0.00192393
0.00192436
0.00192535
0.00772305
0.0115656
0.00795946
0.0134077
0.0355727
0.0703398
0.0374715
0.00968366
0.00319661
0.00293103
0.00289389
0.0713486
0.0830589
0.0384769
0.00760224
0.00406639
0.00192438
0.00192436
0.00212335
0.00236812
0.0074023
0.00438855
0.0102476
0.092854
0.0938338
0.093841
0.0272618
0.00289389
0.00289389
0.00289389
0.0528146
0.0820078
0.0407487
0.0070754
0.000358297
0.000266691
0.000249576
0.000209279
0.00019859
0.000197867
0.000197761
0.000208182
0.000221589
0.000200049
0.000164918
0.00017183
0.000105604
4.14965e-05
5.95594e-05
9.5682e-05
0.000102437
0.000285913
0.00333736
0.00706531
0.00646755
0.00502159
0.0397627
0.0138916
0.00368411
0.00307884
0.0062173
0.0114881
0.0108424
0.00813305
0.00443706
0.00277169
0.00189641
0.000260198
0.00103975
0.000884261
0.000616021
0.00010571
6.35618e-05
0.00112702
0.00114594
0.0011174
0.00135246
0.00485154
0.0102402
0.0398139
0.0331938
0.00768559
0.00785288
0.0409555
0.073997
0.0736203
0.0548524
0.0511153
0.0532911
0.0533904
0.049169
0.0224915
0.0134388
0.036749
0.0641643
0.0635297
0.0447436
0.0271914
0.0265535
0.0355139
0.0401563
0.0401581
0.0398139
0.018368
0.0107725
0.0267309
0.0752836
0.0752845
0.0752845
0.0752845
0.0752845
0.0699852
0.0299159
0.0158634
0.0467943
0.0671106
0.0671332
0.0671106
0.0541261
0.0240975
0.0256787
0.0401539
0.040152
0.0401559
0.0308754
0.0260869
0.00426527
0.0363825
0.0492361
0.0493829
0.06023
0.0752845
0.0357723
0.00286901
0.00705857
0.00220994
0.00203245
0.00833185
0.00949619
0.00484421
0.00133268
2.00112e-05
2.02157e-05
0.00947994
0.0291435
0.0303423
0.00545358
0.000176002
0.00280308
0.00436098
0.0304324
0.0293316
0.00376144
0.0290149
0.0424777
0.00150796
0.000134193
0.000216107
0.000182511
0.000185413
0.000225926
8.63333e-05
5.6715e-05
6.06885e-05
8.31468e-05
1.99775e-05
-3.00336e-05
-4.00388e-05
-4.98173e-05
-1.45985e-05
-9.5992e-07
0.00122892
0.00246544
0.00324751
0.0011914
0.000266634
0.000342806
0.000703235
5.276e-05
8.81139e-06
5.91814e-06
7.28508e-23
-1.96865e-23
5.36573e-23
-6.75558e-20
0.00986669
0.0228788
0.0426455
0.0757539
0.133699
0.224466
0.293421
0.296293
0.228522
0.00122731
0.000813712
0.000164658
0.000270868
0.000150865
0.000109348
0.000163948
0.000123581
6.75898e-09
6.41388e-06
0.116795
0.256292
0.39711
0.525635
0.613662
0.675958
0.737907
0.799985
0.862308
0.923731
0.961174
0.966865
0.936284
0.000694153
0.000237132
4.06053e-05
4.63979e-05
4.05135e-05
3.94612e-05
0.000223063
0.0474787
0.301415
0.648817
0.86175
0.941496
0.985553
0.99775
0.99833
0.997212
0.996284
0.997168
0.997467
0.998853
0.999997
0.999928
0.999605
0.000285003
4.06066e-05
4.01649e-05
4.0577e-05
3.98392e-05
0.0304518
0.216545
0.563551
0.885842
0.993128
0.990715
0.997482
0.999994
0.999992
0.999991
0.999988
0.999982
0.999985
0.999999
1
0.999999
0.999998
0.999996
0.00937005
0.0268382
0.0838442
0.169822
0.311905
0.579484
0.874028
0.990572
0.998692
0.999975
0.999981
0.999996
0.999995
0.999994
0.999984
0.999945
0.999949
0.99997
0.999993
0.999999
1
0.999993
0.999976
0.702293
0.746804
0.819097
0.902488
0.96052
0.991147
0.992479
0.992792
0.997381
0.999978
0.999999
0.999999
0.999998
0.999981
0.999936
0.999936
0.999936
0.99994
0.999978
0.999997
0.999993
0.999968
0.999961
0.99932
0.999379
0.999516
0.999577
0.998326
0.996039
0.996701
0.998206
0.999507
0.999996
0.999999
0.999999
0.99999
0.999936
0.999935
0.999942
0.999944
0.999963
0.99998
0.999997
0.99997
0.999961
0.999961
0.999917
0.999983
1
0.99998
0.999969
0.999985
0.999996
0.999996
0.999998
0.999999
0.999999
0.999999
0.99994
0.999939
0.999954
0.999997
0.999986
0.99998
0.999993
0.999998
0.999982
0.999961
0.999964
0.999999
0.999999
0.999999
1
0.999998
0.999996
0.999997
0.999997
0.999999
0.999999
0.999998
0.999988
0.999974
0.999981
0.999997
1
0.999999
0.999997
0.999999
1
0.999999
0.999987
0.999995
0.999999
0.999999
0.999999
0.999999
0.999999
0.999999
0.999999
0.999999
0.999999
0.999998
0.999997
0.999995
0.999999
1
1
1
1
1
1
1
1
1
0.999999
0.999999
1
1
1
1
1
0.999999
0.999999
0.999999
0.999999
0.999999
1
1
1
1
1
1
1
1
1
1
0.999999
0.999999
1
1
1
1
1
1
1
1
1
1
1
1
1
1
1
1
1
1
1
1
1
0.999999
0.999999
1
1
1
1
1
1
1
1
1
1
1
1
1
1
1
1
1
1
1
1
1
1
0.999999
1
1
1
1
1
1
1
1
1
1
1
1
1
1
1
1
1
1
1
1
1
1
1
1
1
1
1
1
1
1
1
1
1
1
1
1
1
1
1
1
1
1
1
1
1
1
1
1
1
1
1
1
1
1
1
1
1
1
1
1
1
1
1
1
1
1
1
1
1
1
1
1
1
1
1
1
1
1
1
1
1
1
1
1
1
1
1
1
1
1
1
1
1
1
1
1
1
1
1
1
1
1
1
1
1
1
1
1
1
1
1
1
1
1
1
1
1
1
1
1
1
1
1
1
1
1
1
1
1
1
1
1
1
1
1
1
1
1
1
1
1
1
1
1
1
1
1
1
1
1
1
1
1
1
1
1
1
1
1
1
1
1
1
1
1
1
1
1
1
1
1
1
1
1
1
1
1
1
1
1
1
1
1
1
1
1
1
1
1
1
1
1
1
1
1
1
1
1
1
1
1
1
1
1
1
1
1
1
1
1
1
1
1
1
1
1
1
1
1
1
1
1
1
1
1
1
1
1
1
1
1
1
1
1
1
1
1
1
1
1
1
1
1
1
1
1
1
1
1
1
1
1
1
1
1
1
1
1
0.999999
1
1
1
1
1
1
1
1
1
1
1
1
1
1
1
1
1
1
1
1
1
0.999999
0.999999
1
1
1
1
1
1
1
1
1
1
1
1
1
1
1
1
1
1
1
1
0.999999
0.999999
0.999999
1
1
1
1
1
1
1
1
1
1
1
1
1
1
1
1
1
1
1
1
0.999999
0.999999
1
1
1
1
1
1
1
1
1
1
1
1
1
1
1
1
1
1
1
1
0.999999
0.999999
1
1
1
1
1
1
1
1
1
1
1
1
1
1
1
1
1
1
1
1
1
0.999999
0.999999
1
1
1
1
1
1
1
1
1
1
1
1
1
1
1
1
1
1
1
1
1
0.999999
0.999999
1
1
1
1
1
1
1
1
1
1
1
1
1
1
1
1
1
1
1
1
1
0.999999
0.999999
1
1
1
1
1
1
1
1
1
1
1
1
1
1
1
1
1
1
1
1
1
0.999999
0.999999
1
1
1
1
1
1
1
1
1
1
1
1
1
1
1
1
1
1
1
1
1
0.999999
1
1
1
1
1
1
1
1
1
1
1
1
1
1
1
1
1
1
1
1
1
1
0.999999
1
1
1
1
1
1
1
1
1
1
1
1
1
1
1
1
1
1
1
1
1
1
1
1
1
1
1
1
1
1
1
1
1
1
1
1
1
1
1
1
1
1
1
0.00388956
0.00217614
0.00213231
0.00701932
0.0294601
0.0363352
0.0363801
0.0363352
0.0268346
0.00547647
0.00440201
0.00137165
0.00595681
4.57333e-05
4.548e-05
5.05559e-05
6.7325e-05
6.81259e-05
0.000195892
0.000590973
0.000799129
0.000736615
0.000543635
0.000550984
0.15489
0.150444
0.153988
0.152582
0.894548
0.889649
0.892095
0.888126
0.999151
0.99956
0.999648
0.999679
0.999998
0.999999
1
1
0.99998
0.999985
0.999993
0.999999
0.999962
0.999962
0.999965
0.999986
0.999961
0.999964
0.999964
0.99997
0.999974
0.999973
0.999977
0.999979
0.999999
0.999999
0.999994
0.999948
0.999999
0.999997
0.999949
0.99994
0.999999
0.999999
0.999967
0.999942
0.999999
0.999999
0.999997
0.999997
0.999999
0.999999
1
0.999999
0.999999
1
1
1
1
1
1
1
1
1
1
1
1
1
1
1
1
1
1
1
1
1
1
1
1
1
1
1
1
1
1
1
1
1
1
1
1
1
1
1
1
1
1
1
1
1
1
1
1
1
1
1
1
1
1
1
1
1
1
1
1
1
1
1
1
1
1
1
1
1
1
1
1
1
1
1
1
1
1
1
1
1
1
1
1
1
1
1
1
1
1
1
0.0087633
0.00467414
0.00210799
0.00192595
0.00681503
0.00303492
0.00297205
0.00343314
0.0109868
0.0885094
0.0938414
0.0938381
0.0449905
0.0118904
0.00717522
0.0114295
0.0558618
0.0449103
0.040592
0.00665863
0.00193794
0.00193534
0.0483422
0.0658102
0.0182025
0.0354814
0.0489911
0.0225452
0.0386579
0.0938386
0.0938458
0.0938343
0.060176
0.0415832
0.0397202
0.0261666
0.0188517
0.0416334
0.000966361
0.023464
0.0739032
0.187733
0.187731
0.165317
0.140439
0.0134534
0.000882344
0.00084216
0.0572936
0.0938391
0.0660947
0.029084
0.017197
0.0134612
0.00741949
0.0121895
0.0369282
5.07637e-05
0.0794716
0.187733
0.187731
0.17646
0.0296517
0.000442414
0.000475062
0.0004478
0.000901817
0.0138733
0.0607427
0.00897174
0.0018019
0.001077
0.00143657
0.00251017
0.00146031
0.00201439
0.000831869
0.0122202
0.162348
0.187733
0.0976284
0.000442308
0.000442889
0.000778411
0.00126203
0.00137494
0.00178091
0.00261346
0.00529608
0.00531083
0.000542303
0.000137545
0.000134686
1.13583e-06
6.14593e-07
0.000721981
0.000850578
0.0913333
0.18773
0.150959
0.0209588
0.000442514
0.000690522
0.00177539
0.00103312
0.00103766
0.00124447
0.0015657
0.00219354
0.0016744
0.000832751
0.000329857
6.13346e-07
0.00257457
0.150732
0.147228
0.142674
0.165024
0.187352
0.233606
0.157309
0.0815969
0.0540119
0.076892
0.0355924
0.000475461
0.000469328
0.00047158
0.000463535
0.000509793
0.000330439
0.0381322
0.0958017
0.884093
0.876977
0.860603
0.849368
0.855292
0.854245
0.835345
0.788442
0.730849
0.750661
0.706126
0.608373
0.538266
0.494235
0.403176
0.377351
0.506301
0.700714
0.697984
0.999669
0.999772
0.999813
0.999919
0.999868
0.999874
0.999739
0.998358
0.997588
0.998931
0.999121
0.998846
0.997777
0.995525
0.985793
0.974587
0.990522
0.993897
0.994063
1
1
1
1
0.999999
0.999999
0.999994
0.999996
1
1
0.99999
0.999999
1
0.999983
0.999479
0.998403
0.999369
0.999768
0.999751
1
1
1
1
0.999999
0.999994
0.999952
0.999975
0.999993
0.999991
0.999996
1
0.999984
0.999963
0.999964
0.999964
0.999963
0.999881
0.999896
1
1
1
0.999999
0.999995
0.999899
0.999761
0.999797
0.99999
0.999994
0.999999
0.999999
0.999995
0.999905
0.999881
0.999882
0.99989
0.999874
0.999875
0.999999
1
1
1
0.99996
0.999761
0.999761
0.999762
0.999875
0.999994
0.999966
0.999923
0.999992
0.999978
0.999884
0.999872
0.999872
0.999881
0.999965
0.999965
0.999981
0.999998
0.999974
0.999868
0.999764
0.999765
0.999762
0.999771
0.999942
0.999837
0.999816
0.99988
0.999985
0.999966
0.999876
0.999874
0.999957
0.999989
0.99994
0.999943
0.999952
0.999914
0.999819
0.999772
0.999882
0.99993
0.999876
0.999846
0.999869
0.999949
0.999953
0.999986
0.999931
0.999889
0.999951
0.999988
0.999989
0.999943
0.99997
0.999912
0.999888
0.999834
0.999914
0.999983
0.999965
0.99998
0.999988
0.999988
0.999983
0.999967
0.999961
0.999953
0.999952
0.999952
0.999971
0.999987
0.99998
0.999997
0.999978
0.99992
0.999931
0.999991
0.99998
0.999949
0.999949
0.999975
0.999974
0.999951
0.999949
0.999949
0.999949
0.999948
0.999949
0.999965
0.999987
0.999999
0.999998
0.999993
0.999988
0.999993
0.999993
0.999991
0.999962
0.999948
0.999948
0.999947
0.999948
0.99996
0.999981
0.999977
0.99995
0.99995
0.999987
0.999994
0.999999
0.999998
0.999994
0.999993
0.999994
0.999993
0.999991
0.999993
0.999994
0.999972
0.999957
0.999957
0.99997
0.999996
0.999998
0.999992
0.999963
0.999994
0.999997
1
1
1
0.999998
0.999987
0.999985
0.999985
0.999985
0.999996
0.999999
0.999977
0.999962
0.999962
0.999963
0.999992
1
0.999976
0.999984
0.999998
1
1
1
1
1
0.999996
0.999994
0.999997
1
1
0.999997
0.999982
0.999962
0.999962
0.999975
1
0.999978
0.999979
0.999999
1
1
1
1
1
1
1
1
1
1
1
1
0.999999
0.999988
0.999993
1
0.999988
0.999987
0.999999
1
1
1
1
1
1
1
1
1
1
1
1
1
1
1
1
0.999995
0.999994
0.999999
1
1
1
1
1
1
1
1
1
1
1
1
1
1
1
1
0.999997
0.999997
0.999999
1
1
1
1
1
1
1
1
1
1
1
1
1
1
1
0.999999
0.999999
1
1
1
1
1
1
1
1
1
1
1
1
1
1
1
1
1
0.999999
1
1
1
1
1
1
1
1
1
1
1
1
1
1
1
1
1
1
1
1
1
1
1
1
1
1
1
1
1
1
1
1
1
1
1
1
1
1
1
1
1
1
1
1
1
1
1
1
1
1
1
1
1
1
1
1
1
1
1
1
1
1
1
1
1
1
1
1
1
1
1
1
1
1
1
1
1
1
1
1
1
1
1
1
1
1
1
1
1
1
1
1
1
1
1
1
1
1
1
1
1
1
1
1
1
1
1
1
1
1
1
1
1
1
1
1
1
1
1
1
1
1
1
1
1
1
1
1
1
1
1
1
1
1
1
0.999999
1
1
1
1
1
1
1
1
1
1
1
1
0.999999
0.999999
1
1
1
1
0.999997
1
1
1
1
1
1
1
1
1
1
1
1
0.999997
0.999993
0.999998
1
1
1
0.999997
1
1
1
1
1
1
1
1
1
1
1
1
0.999998
0.999993
0.999993
0.999999
1
1
0.999997
1
1
1
1
1
1
1
1
1
1
1
1
1
0.999997
0.999993
0.999994
1
1
0.999998
1
1
1
1
1
1
1
1
1
1
1
1
1
0.999999
0.999995
0.999993
0.999996
0.999999
0.999998
1
1
1
1
1
1
1
1
1
1
1
1
1
1
0.999999
0.999994
0.999994
0.999998
0.999997
1
1
1
1
1
1
1
1
1
1
1
1
1
1
1
0.999999
0.999997
0.999998
0.999999
1
1
1
1
1
1
1
1
1
1
1
1
1
1
1
1
1
1
1
1
1
1
1
1
1
1
1
1
1
1
1
1
1
1
1
1
1
1
)
;

boundaryField
{
    leftWall
    {
        type            alphaContactAngle;
        thetaProperties 
6
(
(galistan air) 90 0 0 0
(oil galistan) 90 0 0 0
(water oil) 90 0 0 0
(water air) 90 0 0 0
(oil air) 90 0 0 0
(water galistan) 90 0 0 0
);
        value           nonuniform List<scalar> 
50
(
9.7769e-10
1.24518e-09
3.078e-09
2.91861e-09
0.000447227
0.00129301
0.000403476
0.000261215
0.0070754
0.0397627
0.0398139
0.0398139
0.0260869
0.00280308
0.00122892
0.00122731
0.000694153
0.000285003
0.00937005
0.702293
0.99932
0.999917
0.999999
0.999999
0.999999
1
1
1
1
1
1
1
1
1
1
1
1
1
1
1
1
1
1
1
1
1
1
1
1
1
)
;
    }
    rightWall
    {
        type            alphaContactAngle;
        thetaProperties 
6
(
(galistan air) 90 0 0 0
(oil galistan) 90 0 0 0
(water oil) 90 0 0 0
(water air) 90 0 0 0
(oil air) 90 0 0 0
(water galistan) 90 0 0 0
);
        value           nonuniform List<scalar> 
50
(
0.00558231
0.00700282
0.015722
0.0199767
0.0345784
0.0346937
0.0384769
0.0407487
0.040592
0.0416334
0.0369282
0.00201439
6.14593e-07
0.00257457
0.0958017
0.697984
0.994063
0.999751
0.999896
0.999875
0.999965
0.999989
0.999989
0.999987
0.999987
0.999994
0.999997
0.999998
0.999999
0.999999
0.999999
0.999999
1
1
1
1
1
1
1
1
0.999999
0.999997
0.999997
0.999997
0.999998
0.999998
0.999997
0.999999
1
1
)
;
    }
    lowerWall
    {
        type            alphaContactAngle;
        thetaProperties 
6
(
(galistan air) 90 0 0 0
(oil galistan) 90 0 0 0
(water oil) 90 0 0 0
(water air) 90 0 0 0
(oil air) 90 0 0 0
(water galistan) 90 0 0 0
);
        value           nonuniform List<scalar> 
62
(
9.7769e-10
9.99319e-10
9.59902e-10
9.3932e-10
9.52686e-10
9.88496e-10
7.91205e-10
4.61567e-10
2.24724e-10
1.17365e-10
1.05636e-10
1.05149e-10
1.06821e-10
1.09194e-10
1.17108e-10
1.36775e-10
1.73775e-10
2.08389e-10
2.13916e-10
1.61295e-10
2.15624e-10
1.81188e-07
5.0196e-07
5.0196e-07
7.5651e-07
6.30648e-07
5.18286e-08
3.94772e-09
4.16004e-10
0.00127201
0.00959422
0.00388956
0.00217614
0.00213231
0.00701932
0.000235791
0.00023587
0.00150066
0.00921593
0.00944616
0.0056223
0.00666604
0.00760224
0.000235791
0.001202
0.00687286
0.0082085
0.00820969
0.00550064
0.0033744
0.00225526
0.00225435
0.00225246
0.00225404
0.00224993
0.00228569
0.00228501
0.00242972
0.00354597
0.00480256
0.00557215
0.00558231
)
;
    }
    atmosphere
    {
        type            inletOutlet;
        inletValue      uniform 1;
        value           nonuniform List<scalar> 
46
(
1
1
1
1
1
1
1
1
1
1
1
1
1
1
1
1
1
1
1
1
1
1
1
1
1
1
1
1
1
1
1
1
1
1
1
1
1
1
1
1
1
1
1
1
1
1
)
;
    }
    defaultFaces
    {
        type            empty;
    }
}


// ************************************************************************* //
