/*--------------------------------*- C++ -*----------------------------------*\
| =========                 |                                                 |
| \\      /  F ield         | OpenFOAM: The Open Source CFD Toolbox           |
|  \\    /   O peration     | Version:  2312                                  |
|   \\  /    A nd           | Website:  www.openfoam.com                      |
|    \\/     M anipulation  |                                                 |
\*---------------------------------------------------------------------------*/
FoamFile
{
    version     2.0;
    format      ascii;
    arch        "LSB;label=32;scalar=64";
    class       volScalarField;
    location    "3.95";
    object      alphas;
}
// * * * * * * * * * * * * * * * * * * * * * * * * * * * * * * * * * * * * * //

dimensions      [0 0 0 0 0 0 0];

internalField   nonuniform List<scalar> 
2268
(
2
2
2
2
2
2
2
2
2
2
2
2
2
2
2
2
2
2
2
2
1.99997
1.99995
1.99995
2
2
2
2
2
2
2
2
2
2
2
2
2
2
2
2
2
2
2
2
2
1.99998
1.99997
2
2
2
2
2
2
2
2
2
2
2
2
2
2
2
2
2
2
2
2
2
2
2
2
2
2
2
2
2
2
2
2
2
2
2
2
2
2
2
2
1.99999
1.99999
2
2
2
2.00004
1.99689
1.99716
1.99859
2.00007
2.00006
1.99998
1.99997
1.99998
2
2
2
2
2
1.99999
1.99999
1.99998
2
2
2
2
2
2.00059
2.00395
0.984087
1.03794
1.13671
1.26571
1.41622
1.58401
1.75363
1.89924
1.99199
1.99963
1.99941
1.99982
1.99947
1.99511
1.97893
1.94638
1.90401
1.85808
1.81402
1.74178
1.64109
1.58807
1.53542
0.00862446
0.014564
0.0273067
0.0499006
0.0925905
0.173809
0.313072
0.528418
0.798251
1.07465
1.20806
1.21489
1.14456
1.02306
0.842849
0.669573
0.53994
0.48463
0.464064
0.400989
0.294648
0.201633
0.14975
0.000898512
0.000898773
0.00217384
0.00263748
0.00261222
0.00209793
0.00144502
0.000746655
0.000499308
0.0104234
0.0272993
0.0320522
0.0276143
0.0176679
0.0246834
0.023436
0.0217569
0.0374633
0.0842158
0.163287
0.154075
0.0905683
0.0391595
1.94393
1.94694
1.9498
1.95914
1.9705
1.96997
1.96089
1.95262
1.9489
1.94885
1.94854
1.94798
1.94797
1.95125
1.95944
1.96089
1.96921
1.96764
1.96735
1.7786
1.84721
1.85784
1.87733
1.88844
1.89337
1.92501
1.96396
1.97024
1.96654
1.96385
1.96541
1.96534
1.95998
1.9621
1.96679
1.97467
1.97715
1.97251
0.766181
0.657387
0.608045
0.704964
0.9016
1.05664
1.22946
1.38297
1.52776
1.67163
1.66465
1.65912
1.68279
1.67291
1.68235
1.69021
1.74427
1.84304
1.85744
0.31519
0.139877
0.0384848
0.0411482
0.0391329
0.1239
0.40816
0.459549
0.326607
0.393475
1.04868
1.09193
0.909612
0.790813
0.922042
1.2046
1.45733
1.50065
1.4985
0.319169
0.125245
0.0588207
0.0430476
0.0501158
0.053269
0.149956
0.177897
0.0836979
0.104415
0.17915
0.480079
0.301314
0.157606
0.163273
0.274228
0.567885
1.05668
1.3641
0.222396
0.17682
0.176447
0.100911
0.0530506
0.0544573
0.047229
0.0439158
0.0969678
0.165589
0.149061
0.128812
0.177458
0.177775
0.122992
0.123028
0.123212
0.171758
0.551734
0.0920613
0.163158
0.210087
0.210191
0.10992
0.053054
0.0672354
0.0676121
0.323655
0.413397
0.243021
0.131757
0.359516
0.4804
0.195896
0.15053
0.178836
0.14103
0.42419
0.0251382
0.0849744
0.249857
0.285307
0.125528
0.0478786
0.0703171
0.124418
0.566019
0.697453
0.348167
0.329272
0.685544
0.470975
0.290961
0.204927
0.208022
0.136822
0.440592
0.000909097
0.000908721
0.000909171
0.000878919
0.000822516
0.000814316
0.000896837
0.000906196
0.000795136
0.000441598
0.000445864
0.000623538
0.0224187
0.0436878
0.0438698
0.0438956
0.0230481
0.0165993
0.0235131
0.0361877
0.121873
0.117423
0.101278
0.00100599
0.00240765
0.000950015
0.000935806
0.000871359
0.000834309
0.000838613
0.000860133
0.000833058
0.000716277
0.000594892
0.000542424
0.000540782
0.00692111
0.0352218
0.0466379
0.030706
0.0219321
0.0445947
0.0704345
0.0605799
0.0404534
0.0194592
0.0204191
0.00756407
0.0136603
0.0222882
0.0303971
0.0428254
0.0443422
0.056517
0.0772035
0.0838415
0.0666334
0.0407825
0.0464708
0.0685258
0.083506
0.0954338
0.106585
0.153906
0.304529
0.333683
0.23941
0.148453
0.145203
0.317187
0.199109
0.172905
0.25545
0.407174
0.49218
0.49719
0.499658
0.516602
0.552662
0.598087
0.678845
0.715119
0.749091
0.786457
0.750361
0.787634
0.915905
1.01485
1.00979
0.919273
0.901321
0.886832
0.994646
0.926813
0.893545
0.932187
0.987824
1.01336
1.01806
1.03137
1.08624
1.14793
1.14828
1.0864
1.00944
1.00733
1.06333
1.177
1.18289
1.14336
1.05108
1.00174
1.0019
1.01136
1.00759
1.07015
1.0185
1.00113
1.00086
1.0008
1.00075
1.0007
1.00045
1.00042
1.00049
1.00044
1.00035
1.00034
1.00037
1.00034
1.02333
1.0449
1.00086
1.00072
1.00067
1.00067
1.00066
1.00065
1.69968
1.75861
1.73482
1.64845
1.55671
1.47992
1.41303
1.34802
1.27706
1.20037
1.1223
1.0651
1.03144
1.00996
1.00042
1.00023
1.00038
1.00005
1.00026
0.99987
0.999794
1.00039
1.00068
2.99901
2.9984
2.99749
2.99343
2.96997
2.93764
2.89864
2.85134
2.7894
2.69319
2.54405
2.39472
2.2647
2.10718
1.88442
1.52046
1.22314
1.16529
1.24088
1.25537
1.10769
1.02487
1.0033
3
3
3
3
3
3
3
2.99999
2.99994
2.99991
2.99768
2.98615
2.97479
2.97678
2.97946
2.98907
2.91159
2.76335
2.68874
2.64094
2.45808
2.22551
2.02811
3
3
3
3
3
3
3
3
3
3
3
2.99994
2.99992
3
3
3
2.99998
2.99977
2.99367
2.97474
2.98335
2.9891
2.98934
3
3
3
2.99999
2.99999
2.99999
3
3
3
3
3
2.99999
2.99999
2.99997
2.99997
2.99997
2.99998
2.99999
2.99996
2.99995
2.99996
2.99998
2.99999
3
3
3
2.99999
2.99999
2.99999
2.99998
2.99995
2.99999
3
2.99999
2.99997
2.99997
2.99997
2.99997
2.99999
3
3
2.99999
2.99999
2.99999
3
3
3
3
3
3
3
2.99998
2.99988
2.99985
2.99991
2.99999
2.99998
2.99998
2.99999
3
3
3
3
3
3
3
2.99999
2.99999
3
3
3
3
3
3
2.99997
2.99985
2.99985
2.99986
2.99989
2.99986
2.99988
2.99997
3
3
3
2.99997
2.99997
2.99999
3
3
3
3
3
3
3
3
3
2.99999
2.99994
2.99989
2.99988
2.99985
2.99984
2.99983
2.9999
2.99997
2.99996
2.99997
2.99993
2.99991
2.99993
2.99999
3
3
3
3
3
3
3
3
3
3
3
3
2.99998
2.99993
2.99991
2.99991
2.99994
2.99994
2.99993
2.99994
2.99991
2.99991
2.99993
2.99996
2.99997
3
3
3
3
3
3
3
3
3
3
3
3
2.99999
2.99999
2.99998
2.99997
2.99999
3
2.99997
2.99992
2.99991
2.99991
2.99991
2.99997
3
3
3
3
3
3
3
3
3
3
3
3
3
3
3
3
3
3
3
2.99998
2.99994
2.99993
2.99998
3
3
3
3
3
3
3
3
3
3
3
3
3
3
3
3
3
3
3
3
3
3
3
3
3
3
3
3
3
3
3
3
3
3
3
3
3
3
3
3
3
3
3
3
3
3
3
3
3
3
3
3
3
3
3
3
3
3
3
3
3
3
3
3
3
3
3
3
3
3
3
3
3
3
3
3
3
3
3
3
3
3
3
3
3
3
3
3
3
3
3
3
3
3
3
3
3
3
3
3
3
3
3
3
3
3
3
3
3
3
3
3
3
3
3
3
3
3
3
3
3
3
3
3
3
3
3
3
3
3
3
3
3
3
3
3
3
3
3
3
3
3
3
3
3
3
3
3
3
3
3
3
3
3
3
3
3
3
3
3
3
3
3
3
3
3
3
3
3
3
3
3
3
3
3
3
3
3
3
3
3
3
3
3
3
3
3
3
3
3
3
3
3
3
3
3
3
3
3
3
3
3
3
3
3
3
3
3
3
3
3
3
3
3
3
3
3
3
3
3
3
3
3
3
3
3
3
3
3
3
3
3
3
3
3
3
3
3
3
3
3
3
3
3
3
3
3
3
3
3
3
3
3
3
3
3
3
3
3
3
3
3
3
3
3
3
3
3
3
3
3
3
3
3
3
3
3
3
3
3
3
3
3
3
3
3
3
3
3
3
3
3
3
3
3
3
3
3
3
3
3
3
3
3
3
3
3
3
3
3
3
3
3
3
3
3
3
3
3
3
3
3
3
3
3
3
3
3
3
3
3
3
3
3
3
3
3
3
3
3
3
3
3
3
3
3
3
3
3
3
3
3
3
3
3
3
3
3
3
3
3
3
3
3
3
3
3
3
3
3
3
3
3
3
3
3
3
3
3
3
3
3
3
3
3
3
3
3
3
3
3
3
3
3
3
3
3
3
3
3
3
3
3
3
3
3
3
3
3
3
3
3
3
3
3
3
3
3
3
3
3
3
3
3
3
3
3
3
3
3
3
3
3
3
3
3
3
3
3
3
3
3
3
3
3
3
3
3
3
3
3
3
3
3
3
3
3
3
3
3
3
3
3
3
3
3
3
3
3
3
3
3
3
3
3
3
3
3
3
3
3
3
3
3
3
3
3
3
3
3
3
3
3
3
3
3
3
3
3
3
3
3
3
3
3
3
3
3
3
3
3
3
3
3
3
3
3
3
3
3
3
3
3
3
3
3
3
3
3
3
3
3
3
3
3
3
3
3
3
3
3
3
3
3
3
3
3
3
3
3
3
3
0.0353672
0.0150371
0.0150189
0.0152396
0.0209727
0.0221324
0.0198461
0.0152682
0.167242
0.228843
0.265132
0.277645
0.883098
0.957462
1.09702
1.04892
1.00094
1.01942
1.02359
1.00366
1.0008
1.00087
1.00077
1.00097
1.00086
1.00069
1.00008
0.9997
0.998404
0.999277
0.99977
0.999965
1.827
1.65439
1.51965
1.41244
2.98026
2.96594
2.93757
2.8934
2.99999
2.99998
2.99557
2.99265
3
3
2.99999
2.99999
3
3
3
3
3
3
2.99999
3
2.99999
2.99999
2.99999
2.99999
3
2.99999
2.99999
2.99999
3
3
3
3
3
3
3
3
3
3
3
3
3
3
3
3
3
3
3
3
3
3
3
3
3
3
3
3
3
3
3
3
3
3
3
3
3
3
3
3
3
3
3
3
3
3
3
3
3
3
3
3
3
3
3
3
3
3
3
3
3
3
3
3
3
3
3
3
3
3
3
3
3
3
3
3
3
3
3
3
3
3
3
3
3
3
3
3
3
3
3
3
3
3
3
3
3
3
3
3
3
3
3
3
0.0159206
0.045012
0.327538
0.326174
0.0798432
0.061141
0.0696973
0.21358
0.781071
0.714903
0.679847
0.885325
0.917228
0.666916
0.329305
0.211772
0.208554
0.13431
0.265225
0.0149416
0.290489
0.789331
0.527707
0.164364
0.136976
0.224134
0.451002
1.00257
1.07457
1.14362
1.15174
1.10318
0.813697
0.480073
0.256761
0.181682
0.156036
0.149319
0.492922
0.979235
1.03212
0.88516
0.721643
0.720642
0.912547
0.907171
0.886621
1.05291
1.06529
1.02082
1.05251
1.08488
1.05574
0.87807
0.783402
0.70789
0.560439
1.0064
1.02302
1.05312
1.03569
1.01164
1.24144
1.08538
0.934199
0.929303
1.02171
1.00571
1.00441
1.00517
1.05879
1.09467
1.0961
1.03491
1.01223
1.01878
1.00084
1.0022
1.00316
1.00199
1.00663
1.24434
1.18726
0.9823
1.0134
1.16412
1.01447
1.00359
1.00374
1.00777
1.00736
1.07846
1.05173
1.00588
1.00593
0.991423
0.996257
1.00049
1.00122
1.00159
1.06374
1.17842
1.20469
1.25253
1.16913
1.00639
0.998939
0.999913
1.00269
1.0042
1.01076
1.03222
1.0062
1.00539
0.99123
0.988473
0.998375
1.00049
1.00091
0.993373
1.00846
1.00906
1.01186
1.00822
0.996763
0.996963
0.997292
0.998574
1.00076
1.00289
1.00704
1.02439
1.00606
0.995576
0.98334
0.991629
0.999753
0.999373
0.998596
0.998106
0.998763
1.00023
1.01332
1.03958
1.07923
1.13796
1.21211
1.29899
1.42788
1.7463
2.00398
1.74903
1.23054
1.17048
1.43071
1.63611
1.5653
1.50654
1.62662
1.97262
2.07705
2.12812
2.23476
2.40882
2.56577
2.6691
2.74693
2.83527
2.93605
2.98327
2.94933
2.75852
2.54358
2.5182
2.73369
2.86416
2.85047
2.88471
2.97608
2.99335
2.99608
2.99813
2.9986
2.99884
2.99905
2.99936
2.99961
2.99942
2.99956
2.99973
2.99891
2.99757
2.97443
2.96887
2.98211
2.99229
2.99745
2.99988
3
3
2.99998
3
3
3
2.99999
2.99999
2.99999
2.99999
2.99999
2.99998
2.99999
3
2.99999
3
2.99999
2.99999
3
3
3
3
3
2.99982
2.99953
2.9995
2.99951
2.99954
2.99956
2.99961
3
3
2.99997
2.99986
2.99978
2.99978
2.99975
2.99986
3
3
3
2.99997
2.99954
2.9995
2.99949
2.9997
2.99982
2.99977
2.99981
3
2.99998
2.99973
2.99967
2.9997
2.99972
2.99974
2.99973
2.99991
2.99995
2.99996
2.99968
2.9995
2.99949
2.99979
2.99991
2.99994
2.99994
2.99992
3
2.99998
2.99971
2.99966
2.99967
2.99987
2.99989
2.99991
2.99991
2.99996
2.99994
2.99965
2.99953
2.99957
2.99971
2.99993
2.99994
2.99994
2.99984
2.99999
2.99999
2.99985
2.9998
2.99985
2.99999
2.99999
2.99999
2.99999
2.99999
2.99996
2.99991
2.99994
2.99997
2.99995
2.99976
2.99975
2.99993
2.99984
3
2.99997
2.99992
2.9999
2.99995
2.99999
2.99999
2.99995
2.99992
2.99989
2.99989
2.99988
2.99991
2.99998
2.99998
2.99989
2.99973
2.9998
2.99987
3
2.99999
2.99998
2.99998
2.99992
2.99991
2.99994
2.99994
2.99993
2.9999
2.99984
2.99981
2.99978
2.99984
2.99998
2.99995
2.99973
2.99973
2.99998
3
3
3
3
2.99993
2.9999
2.99991
2.99991
2.99995
2.99999
2.99996
2.99985
2.99978
2.99978
2.99994
2.99993
2.99973
2.99981
2.99999
3
3
3
3
2.99999
2.99994
2.99991
2.99991
2.99996
3
3
2.99995
2.9998
2.99978
2.99986
2.99982
2.99974
2.99994
3
3
3
3
3
3
3
2.99998
2.99998
2.99999
3
3
2.99998
2.99981
2.99978
2.99985
2.99977
2.99978
2.99998
3
3
3
3
3
3
3
3
3
3
3
3
3
2.99989
2.99983
2.99993
2.99979
2.99992
3
3
3
3
3
3
3
3
3
3
3
3
3
3
3
2.99999
2.99999
2.99995
2.99999
3
3
3
3
3
3
3
3
3
3
3
3
3
3
3
3
2.99999
3
3
3
3
3
3
3
3
3
3
3
3
3
3
3
3
3
3
3
3
3
3
3
3
3
3
3
3
3
3
3
3
3
3
3
3
3
3
3
3
3
3
3
3
3
3
3
3
3
3
3
3
3
3
3
3
3
3
3
3
3
3
3
3
3
3
3
3
3
3
3
3
3
3
3
3
3
3
3
3
3
3
3
3
3
3
3
3
3
3
3
3
3
3
3
3
3
3
3
3
3
3
3
3
3
3
3
3
3
3
3
3
3
3
3
3
3
3
3
3
3
3
3
3
3
3
3
3
3
3
3
3
3
3
3
3
2.99999
3
3
3
3
3
3
3
3
3
3
3
3
3
3
3
3
3
3
2.99999
3
3
3
3
3
3
3
3
3
3
3
3
3
3
2.99999
3
3
3
2.99999
3
3
3
3
3
3
3
3
3
3
3
3
3
3
2.99999
2.99999
3
3
3
3
3
3
3
3
3
3
3
3
3
3
3
3
3
2.99999
2.99999
2.99999
3
3
3
3
3
3
3
3
3
3
3
3
3
3
3
3
2.99999
2.99999
2.99999
2.99999
2.99999
3
3
3
3
3
3
3
3
3
3
3
3
3
3
3
2.99999
2.99999
2.99999
3
3
3
3
3
3
3
3
3
3
3
3
3
3
3
3
3
3
3
3
3
3
3
3
3
3
3
3
3
3
3
3
3
3
3
3
3
3
3
3
3
3
3
3
3
3
3
3
3
3
3
3
3
3
3
3
3
3
3
3
3
3
3
3
3
3
3
3
3
3
3
3
3
3
3
3
3
3
3
3
3
3
3
3
3
3
3
3
3
3
3
3
3
3
3
3
)
;

boundaryField
{
    leftWall
    {
        type            calculated;
        value           nonuniform List<scalar> 
50
(
2
2
2
2
1.99689
0.984087
0.00862446
0.000898512
0.000909097
0.00100599
0.0204191
0.317187
0.994646
1.07015
1.69968
2.99901
3
3
3
3
3
3
3
3
3
3
3
3
3
3
3
3
3
3
3
3
3
3
3
3
3
3
3
3
3
3
3
3
3
3
)
;
    }
    rightWall
    {
        type            calculated;
        value           nonuniform List<scalar> 
50
(
1.96735
1.97251
1.85744
1.4985
1.3641
0.551734
0.42419
0.440592
0.265225
0.149319
0.560439
1.01878
1.00593
1.00539
1.00606
1.74903
2.94933
2.99973
2.99999
2.99961
2.99981
2.99992
2.99984
2.99984
2.99987
2.99998
2.99999
3
3
3
3
3
3
3
3
3
3
3
2.99999
2.99999
2.99999
3
3
2.99999
3
3
3
3
3
3
)
;
    }
    lowerWall
    {
        type            calculated;
        value           nonuniform List<scalar> 
62
(
2
2
2
2
2
2
2
2
2
2
2
2
2
2
2
2
2
2
2
2
1.99997
1.99995
1.99995
1.99995
1.99997
2
2.00004
2.00395
1.53542
0.14975
0.0391595
0.0353672
0.0150371
0.0150189
0.0152396
1.94393
1.7786
0.766181
0.31519
0.319169
0.222396
0.0920613
0.0251382
1.94393
1.94694
1.9498
1.95914
1.9705
1.96997
1.96089
1.95262
1.9489
1.94885
1.94854
1.94798
1.94797
1.95125
1.95944
1.96089
1.96921
1.96764
1.96735
)
;
    }
    atmosphere
    {
        type            calculated;
        value           nonuniform List<scalar> 
46
(
3
3
3
3
3
3
3
3
3
3
3
3
3
3
3
3
3
3
3
3
3
3
3
3
3.00001
3
3
3
3
3
3
3
3
3
3
3
3
3
3
3
3
3
3
3
3
3
)
;
    }
    defaultFaces
    {
        type            empty;
    }
}


// ************************************************************************* //
