/*--------------------------------*- C++ -*----------------------------------*\
| =========                 |                                                 |
| \\      /  F ield         | OpenFOAM: The Open Source CFD Toolbox           |
|  \\    /   O peration     | Version:  2312                                  |
|   \\  /    A nd           | Website:  www.openfoam.com                      |
|    \\/     M anipulation  |                                                 |
\*---------------------------------------------------------------------------*/
FoamFile
{
    version     2.0;
    format      ascii;
    arch        "LSB;label=32;scalar=64";
    class       volScalarField;
    location    "3.95";
    object      alpha.water_0;
}
// * * * * * * * * * * * * * * * * * * * * * * * * * * * * * * * * * * * * * //

dimensions      [0 0 0 0 0 0 0];

internalField   nonuniform List<scalar> 
2268
(
3.73363e-07
3.3688e-07
7.88435e-08
1.07378e-08
3.58038e-09
8.28146e-10
2.01209e-10
1.44422e-10
9.1138e-11
6.64809e-11
5.5997e-11
5.03442e-11
5.055e-11
5.61242e-11
6.67347e-11
9.15672e-11
1.20447e-10
1.6355e-10
2.33374e-10
4.23706e-10
8.41453e-10
1.27195e-09
1.41194e-09
3.33834e-07
2.52775e-07
5.88755e-08
8.32775e-09
7.91885e-10
2.90811e-10
2.14648e-10
1.55337e-10
1.09536e-10
9.55438e-11
8.90591e-11
8.18837e-11
8.13412e-11
8.9236e-11
1.08495e-10
1.37101e-10
1.69881e-10
2.25839e-10
3.79845e-10
7.30475e-10
1.27529e-09
1.67184e-09
1.67176e-09
5.09345e-08
2.57962e-08
1.59846e-08
4.65472e-09
7.6129e-10
1.61198e-10
1.85218e-10
2.63105e-10
6.20502e-10
7.40429e-10
4.70405e-10
1.70926e-10
1.33388e-10
1.358e-10
1.51708e-10
1.67988e-10
2.85498e-10
1.09836e-09
1.85923e-09
7.40344e-10
1.1875e-09
1.48994e-09
1.35502e-09
1.93009e-09
1.05622e-09
7.9726e-10
1.78328e-10
1.0683e-10
1.92307e-11
1.60041e-10
7.47851e-10
2.93439e-09
3.93464e-09
3.20489e-09
1.11191e-09
7.05206e-11
8.95591e-11
9.5038e-11
1.10255e-10
1.05337e-09
5.83006e-09
6.18838e-09
4.93901e-10
4.38581e-10
3.93553e-10
1.99427e-10
4.24912e-20
1.60687e-20
6.98633e-21
4.90027e-22
1.03181e-22
5.97636e-24
3.96575e-28
-5.43844e-28
-6.54704e-28
8.53434e-11
-3.34042e-10
-3.43146e-10
1.23083e-19
-3.37128e-22
9.29576e-21
6.99286e-13
6.28905e-11
5.34713e-08
7.04216e-08
1.17781e-07
5.78039e-12
5.21085e-12
5.78039e-12
0.53172
0.506063
0.457953
0.394724
0.321032
0.234354
0.144863
0.0662377
0.011736
-2.80468e-12
-3.73042e-11
3.80584e-23
0.000116007
0.00142664
0.00715188
0.0197377
0.0358404
0.0494203
0.060798
0.0909439
0.155877
0.18512
0.210911
0.996155
0.993674
0.98839
0.979865
0.963065
0.928947
0.866272
0.765392
0.63383
0.489723
0.405417
0.391962
0.416723
0.466318
0.549682
0.635044
0.692501
0.696954
0.69379
0.727346
0.793041
0.865031
0.90817
0.999691
0.999691
0.99927
0.999104
0.998866
0.999106
0.999489
0.99968
0.99968
0.996608
0.987744
0.983947
0.986143
0.983079
0.97727
0.979828
0.980702
0.961624
0.925935
0.866443
0.869972
0.917607
0.968648
0.0142817
0.0132135
0.0125579
0.00930689
0.00512934
0.00577042
0.0107706
0.013366
0.0139467
0.0139494
0.0140994
0.0143555
0.0143552
0.0122684
0.00818213
0.00732179
0.00502622
0.00581107
0.00596678
0.0864046
0.0157297
0.0142707
0.00709377
0.00231604
0.0021303
0.00213012
0.00213059
0.00213495
0.00213186
0.00213164
0.00318236
0.00301408
0.00195461
0.00145726
0.00145919
0.00186506
0.00248139
0.00390411
0.474103
0.522131
0.549249
0.489861
0.355624
0.275158
0.191596
0.162944
0.13881
0.0587086
0.0161616
0.0017046
0.00170698
0.00838802
0.00198948
0.00144628
0.001446
0.00144801
0.00144935
0.689311
0.868323
0.971343
0.971356
0.971281
0.862853
0.601519
0.582375
0.758306
0.746905
0.235222
0.214971
0.334437
0.42152
0.316039
0.166829
0.0288056
0.00146212
0.00145154
0.686728
0.887978
0.959833
0.971252
0.971313
0.9591
0.854103
0.844479
0.938455
0.940683
0.836958
0.556842
0.759982
0.884476
0.876353
0.792496
0.574876
0.224582
0.0551882
0.797516
0.863447
0.861727
0.932464
0.970817
0.96983
0.970648
0.970671
0.937554
0.920002
0.919884
0.904061
0.848805
0.863717
0.909649
0.909649
0.909649
0.86249
0.47134
0.922179
0.92238
0.905905
0.872634
0.925933
0.970671
0.970678
0.970678
0.777224
0.710369
0.866488
0.904365
0.669542
0.677674
0.900627
0.90965
0.909649
0.909648
0.580249
0.984266
0.946063
0.895635
0.844535
0.922482
0.970678
0.970678
0.948829
0.533583
0.422392
0.712257
0.665733
0.479724
0.748958
0.880275
0.909647
0.909648
0.909643
0.569499
0.99968
0.99968
0.99968
0.99968
0.99968
0.99968
0.99968
0.999681
0.999681
0.99968
0.99968
0.999593
0.975631
0.956823
0.956773
0.956777
0.978728
0.98398
0.98398
0.977958
0.899887
0.895144
0.91126
0.999641
0.99916
0.99968
0.99968
0.99968
0.99968
0.999675
0.999681
0.999681
0.999681
0.99968
0.99968
0.999675
0.992323
0.966022
0.957248
0.971176
0.983978
0.983981
0.977259
0.980666
0.984441
0.9854
0.993184
0.997345
0.995161
0.992018
0.988881
0.984613
0.984274
0.980376
0.973726
0.972055
0.97841
0.985642
0.978782
0.968269
0.966284
0.964699
0.960897
0.934938
0.866586
0.844927
0.882292
0.909269
0.910881
0.804899
0.869211
0.877364
0.817554
0.711328
0.645855
0.641818
0.642827
0.630487
0.598141
0.554908
0.46876
0.378833
0.35829
0.391713
0.452362
0.414808
0.293365
0.194293
0.163424
0.18829
0.192611
0.209925
0.126669
0.183063
0.156854
0.0922173
0.043815
0.0208927
0.0136261
0.00285687
8.15725e-11
6.2851e-11
8.15725e-11
6.2851e-11
1.05346e-10
1.12954e-10
2.20763e-10
7.21592e-24
4.89789e-41
-5.92104e-24
-2.84626e-23
8.98945e-23
-1.76465e-24
-1.81952e-13
-7.83064e-11
-7.79299e-11
-1.50346e-10
3.96599e-21
3.79984e-06
6.16469e-06
8.34563e-06
1.19707e-05
7.42211e-05
7.65744e-05
7.64628e-05
0.000111525
0.000144005
0.000146395
0.000130669
0.000157811
1.74687e-05
-1.08077e-22
2.45501e-05
2.75559e-05
4.09302e-05
2.46854e-05
-3.22304e-17
1.00059e-11
0.000363848
0.000461137
0.000673447
0.000748072
0.000748371
0.000765074
0.000788776
0.000961516
0.00165876
0.00268962
0.00338553
0.00363312
0.0035583
0.00278498
0.00137678
0.000505884
0.000324081
0.00042172
0.000195211
0.000343336
0.000385367
6.74449e-05
1.01757e-11
0.000317247
0.000497231
0.000755991
0.000830326
0.000845735
0.000857737
0.000755023
0.000549495
0.00108748
0.00693234
0.00866494
0.00866807
0.00866132
0.00866405
0.00865988
0.00495217
0.000664879
0.00211626
0.0065793
0.0114733
0.0121584
0.00880423
0.00391187
5.31934e-09
1.11035e-08
4.50243e-08
1.02055e-07
3.42447e-08
1.12931e-08
3.25047e-09
7.27491e-10
7.34241e-10
7.00377e-10
0.000774743
0.00464654
0.00836948
0.00757201
0.00654587
0.00332118
6.34754e-07
0.000149967
0.0135154
0.0174579
0.0174576
0.0174579
0.014836
1.46815e-08
4.63172e-08
5.4212e-08
2.89201e-08
2.99049e-08
1.00274e-08
1.00495e-08
7.96179e-09
7.44465e-10
5.79016e-08
1.29233e-07
1.74466e-05
3.32505e-05
7.34571e-07
7.45665e-07
3.42675e-07
6.34561e-08
2.86613e-08
0.00243562
0.00925968
0.00637461
0.0045222
0.0047885
2.68098e-08
9.53572e-08
1.21075e-07
1.06773e-07
1.48204e-07
9.45708e-08
9.97125e-09
1.53939e-08
4.90051e-09
2.10469e-09
2.807e-07
1.5089e-06
3.1246e-06
1.01491e-05
1.10172e-05
1.12426e-05
3.96405e-06
1.30609e-06
8.05069e-24
1.5786e-22
-1.32138e-11
2.29773e-27
1.62717e-19
1.9127e-08
5.23377e-08
8.83195e-08
9.07245e-08
1.59807e-07
9.33416e-07
2.65676e-06
2.4659e-06
1.91895e-07
2.10464e-09
2.99637e-06
1.03651e-05
1.05243e-05
1.05855e-05
9.35231e-06
1.95768e-06
2.58024e-07
2.78914e-07
4.1673e-07
4.14076e-07
1.54568e-07
1.04242e-08
2.68146e-09
1.09325e-08
5.24102e-09
2.70164e-08
2.82043e-08
2.10467e-07
3.89222e-06
9.2426e-06
9.24289e-06
2.4845e-06
2.0991e-09
1.64671e-06
3.30052e-06
5.92259e-07
8.13674e-08
8.30232e-08
7.21803e-08
7.21914e-08
7.21381e-08
1.21653e-07
1.37613e-07
1.58989e-07
1.1166e-07
6.98977e-08
7.94194e-09
5.26074e-09
1.18183e-08
4.75917e-08
2.60241e-07
5.6213e-06
9.24273e-06
9.24275e-06
7.2154e-06
4.81679e-06
1.05677e-05
7.00558e-06
1.82408e-06
1.47234e-07
2.79528e-07
7.22151e-08
7.58087e-07
3.19195e-06
1.40862e-06
2.73945e-07
1.03313e-07
1.20489e-07
1.397e-07
7.64897e-09
5.67747e-09
1.71675e-08
6.53601e-08
2.09651e-07
1.6746e-06
6.31732e-06
4.97513e-06
2.95445e-06
1.31889e-05
1.70181e-05
1.72345e-05
1.50171e-05
1.04754e-05
1.29528e-05
6.64877e-06
9.99095e-06
1.75095e-05
1.56806e-05
1.95949e-06
4.41046e-08
4.36475e-08
4.75079e-07
7.45227e-09
5.45114e-09
1.70686e-08
4.81786e-08
1.10828e-07
1.59221e-07
5.01407e-08
1.1672e-08
1.14987e-08
3.81119e-06
1.55533e-05
1.88633e-05
1.90167e-05
1.90166e-05
1.90167e-05
1.90166e-05
1.07855e-05
1.72053e-05
1.89232e-05
1.70989e-05
6.98851e-06
3.25735e-06
2.51458e-07
7.92693e-09
4.24073e-09
1.07753e-08
2.18536e-08
2.22733e-08
7.93737e-09
1.36134e-08
1.53172e-08
2.8284e-08
1.70992e-08
1.16099e-09
3.35825e-06
4.80588e-06
7.85451e-06
9.92022e-06
4.32432e-06
9.23411e-10
3.80656e-06
1.80189e-05
2.02349e-05
2.03972e-05
2.02194e-05
2.98576e-06
1.04429e-08
2.7997e-09
5.17812e-09
6.91995e-09
2.78101e-09
5.66878e-09
9.18089e-09
6.52035e-09
2.09776e-09
8.98462e-10
9.03379e-10
9.08457e-10
9.13677e-10
9.19092e-10
9.24676e-10
9.22905e-10
9.19095e-10
8.84644e-10
8.78216e-10
5.38594e-06
1.47128e-05
1.47764e-05
1.62142e-06
1.77279e-08
1.668e-09
2.23209e-09
2.66909e-09
1.16759e-09
5.53975e-10
3.93675e-10
3.95244e-10
6.95192e-10
8.93645e-10
9.76623e-10
9.82991e-10
1.14687e-09
1.38803e-09
1.67812e-09
1.7914e-09
1.61373e-09
9.06251e-10
8.72051e-10
7.97612e-10
7.99431e-10
7.97612e-10
4.12278e-07
2.08677e-08
1.0113e-09
8.73749e-10
9.75422e-10
6.19968e-10
4.48589e-10
3.93474e-10
4.10572e-10
5.13782e-10
7.11899e-10
9.30697e-10
1.19791e-09
1.70072e-09
2.29083e-09
2.88828e-09
3.09667e-09
2.59061e-09
1.40338e-09
1.29833e-09
2.32778e-09
4.10449e-09
1.00297e-08
1.71127e-08
2.25312e-08
7.43909e-10
3.88282e-10
4.53798e-10
3.71064e-10
3.28815e-10
2.97829e-10
2.60585e-10
2.61053e-10
2.44839e-10
2.50675e-10
3.39813e-10
4.89683e-10
6.52505e-10
8.44112e-10
9.98283e-10
8.97392e-10
6.09822e-10
6.22618e-10
1.04195e-09
1.88026e-09
2.6507e-09
3.65064e-09
2.30709e-08
5.57949e-10
2.65707e-10
2.68552e-10
2.26924e-10
1.8712e-10
1.39013e-10
1.1518e-10
1.00911e-10
9.56434e-11
1.04674e-10
1.27632e-10
1.61229e-10
2.06775e-10
2.52565e-10
2.90428e-10
3.06679e-10
2.68593e-10
2.5844e-10
3.15584e-10
4.80275e-10
9.27887e-10
1.54141e-09
2.45776e-08
4.46645e-10
2.4516e-10
1.98255e-10
1.63941e-10
1.3312e-10
1.07e-10
8.44586e-11
6.6923e-11
5.30792e-11
4.48236e-11
4.57607e-11
5.31934e-11
6.57688e-11
8.20073e-11
9.83909e-11
1.10288e-10
1.13554e-10
1.15481e-10
1.34869e-10
1.86876e-10
2.79671e-10
6.78908e-10
2.56674e-08
3.42225e-10
2.58888e-10
2.007e-10
1.86553e-10
1.80808e-10
1.58997e-10
1.25416e-10
8.62132e-11
5.33937e-11
3.47121e-11
2.42541e-11
2.03982e-11
2.12491e-11
2.51878e-11
3.06857e-11
3.64873e-11
4.22276e-11
4.74705e-11
5.74714e-11
7.81934e-11
1.49191e-10
2.30734e-10
2.77294e-08
2.74048e-10
2.7387e-10
2.75138e-10
2.75187e-10
2.663e-10
2.4379e-10
1.95259e-10
1.34659e-10
7.89002e-11
4.63039e-11
2.60927e-11
1.443e-11
9.20235e-12
7.91201e-12
8.87925e-12
1.10484e-11
1.40278e-11
1.78869e-11
2.40479e-11
3.38496e-11
4.78479e-11
9.92036e-11
2.93096e-08
3.5904e-10
2.87171e-10
3.18965e-10
3.39093e-10
3.63007e-10
3.609e-10
3.13093e-10
2.24553e-10
1.23644e-10
6.91483e-11
3.84005e-11
1.92629e-11
8.80016e-12
4.25801e-12
2.99086e-12
3.23423e-12
4.27614e-12
6.09273e-12
9.18869e-12
1.3983e-11
2.82385e-11
3.91785e-11
3.35349e-08
2.97856e-10
2.97744e-10
3.72825e-10
4.13449e-10
4.81553e-10
5.14008e-10
4.84604e-10
3.73024e-10
1.94574e-10
1.01165e-10
5.70392e-11
2.91836e-11
1.30026e-11
5.11567e-12
1.99924e-12
1.17169e-12
1.33651e-12
2.09299e-12
3.54838e-12
5.72517e-12
8.62311e-12
1.86187e-11
3.58219e-08
8.83986e-10
3.10643e-10
3.97734e-10
4.47404e-10
5.17304e-10
6.08402e-10
6.39816e-10
5.81754e-10
3.02466e-10
1.39494e-10
7.89295e-11
4.2258e-11
1.96327e-11
7.66864e-12
2.6698e-12
8.46934e-13
4.82107e-13
6.45678e-13
1.16094e-12
2.05582e-12
4.68822e-12
6.82481e-12
4.38452e-08
8.58698e-10
2.71766e-10
3.23652e-10
2.75446e-10
3.87946e-10
3.98716e-10
5.99306e-10
8.02735e-10
4.59051e-10
1.82459e-10
1.0031e-10
5.60249e-11
2.7505e-11
1.14677e-11
4.07235e-12
1.28694e-12
3.12779e-13
2.13936e-13
3.49218e-13
8.07684e-13
1.19212e-12
2.78742e-12
4.65788e-08
1.40326e-09
2.44838e-10
2.44824e-10
2.85509e-10
4.61485e-09
3.41375e-10
2.63337e-10
9.21237e-10
6.57104e-10
2.28274e-10
1.17162e-10
6.74755e-11
3.50252e-11
1.58106e-11
5.9147e-12
1.82566e-12
5.0159e-13
1.13153e-13
1.13216e-13
2.0435e-13
5.62797e-13
8.2443e-13
6.23923e-08
2.46189e-10
2.44849e-10
3.93387e-08
2.79024e-07
7.31701e-07
5.19922e-07
2.18799e-08
8.79082e-10
8.80363e-10
2.9019e-10
1.26115e-10
7.35751e-11
4.01085e-11
1.93259e-11
7.97425e-12
2.6147e-12
7.23307e-13
1.39385e-13
4.37199e-14
7.54094e-14
1.26206e-13
2.99416e-13
6.96082e-08
1.75546e-09
7.14663e-09
2.01639e-07
6.92821e-07
1.20521e-06
1.10749e-06
1.32983e-07
8.79767e-10
1.02771e-09
3.53076e-10
1.25061e-10
7.23458e-11
4.07799e-11
2.09209e-11
9.35698e-12
3.49624e-12
9.88555e-13
2.31228e-13
2.6621e-14
1.94626e-14
5.42899e-14
8.77792e-14
7.8143e-08
4.22858e-09
3.08716e-08
2.74048e-07
8.50095e-07
1.19611e-06
1.11215e-06
1.34509e-07
8.8145e-10
1.23902e-09
3.56146e-10
1.13599e-10
6.43298e-11
3.69772e-11
1.98133e-11
9.6422e-12
3.98909e-12
1.30834e-12
3.3503e-13
4.26446e-14
7.7876e-15
1.01448e-14
2.80807e-14
7.57177e-08
4.25818e-09
2.39751e-08
2.35506e-07
5.16733e-07
9.87434e-07
4.44136e-07
2.80813e-09
2.80924e-09
1.30632e-09
3.20779e-10
9.37204e-11
5.17873e-11
2.99204e-11
1.64251e-11
8.49355e-12
3.93716e-12
1.43591e-12
4.03367e-13
7.58974e-14
5.2985e-15
3.70658e-15
7.04362e-15
1.20967e-07
4.99079e-09
8.15546e-09
6.48397e-08
2.02917e-08
1.96659e-10
1.98468e-10
4.72085e-09
4.2069e-09
1.03868e-09
2.50337e-10
6.99573e-11
3.77438e-11
2.15861e-11
1.17873e-11
6.37013e-12
3.23724e-12
1.35652e-12
4.24402e-13
9.47034e-14
7.02064e-15
1.04219e-15
1.80936e-15
1.33968e-07
8.45401e-09
1.95824e-09
6.23333e-09
2.21815e-10
1.54438e-09
4.73625e-10
4.7739e-09
2.9174e-09
6.55148e-10
1.63476e-10
4.58346e-11
2.47875e-11
1.37438e-11
7.24076e-12
3.93506e-12
2.15612e-12
1.03973e-12
3.83858e-13
9.88922e-14
1.03585e-14
6.13985e-16
4.43143e-16
1.66651e-07
4.2056e-08
1.95801e-09
2.89786e-09
1.86939e-09
1.00064e-08
1.88696e-09
2.4025e-09
8.02067e-10
3.30735e-10
8.39724e-11
2.58842e-11
1.45223e-11
7.73273e-12
3.81222e-12
1.98413e-12
1.12343e-12
6.09508e-13
2.70852e-13
8.18554e-14
1.37874e-14
5.92353e-16
1.21257e-16
1.70717e-07
1.2091e-07
4.06317e-08
1.85191e-08
2.64432e-09
5.46543e-09
2.29527e-09
7.00035e-10
2.26121e-10
1.19471e-10
3.15006e-11
1.25665e-11
7.50832e-12
3.84295e-12
1.72771e-12
8.09012e-13
4.39948e-13
2.56949e-13
1.36446e-13
5.22946e-14
1.18631e-14
7.1272e-16
4.37783e-17
1.70822e-07
1.67942e-07
9.6605e-08
3.45947e-08
6.25645e-09
2.50289e-09
2.00144e-09
8.64372e-10
2.12955e-10
3.32211e-11
8.84354e-12
5.17717e-12
3.29949e-12
1.65895e-12
6.81331e-13
2.69199e-13
1.25986e-13
7.23622e-14
4.60811e-14
2.40099e-14
7.50638e-15
6.40648e-16
2.60906e-17
1.36211e-07
1.5758e-07
8.14052e-08
2.5902e-08
6.9669e-09
3.79641e-09
1.72489e-09
6.39516e-10
1.45421e-10
1.78237e-11
3.13928e-12
1.80542e-12
1.19699e-12
5.96524e-13
2.29147e-13
7.54061e-14
2.7106e-14
1.33886e-14
9.4819e-15
7.2952e-15
3.09629e-15
4.57553e-16
2.52144e-17
6.66394e-08
1.17202e-07
5.61355e-08
1.79332e-08
6.27623e-09
2.70532e-09
1.02768e-09
2.87409e-10
4.90327e-11
4.59695e-12
5.94472e-13
4.13878e-13
2.96967e-13
1.53029e-13
5.63203e-14
1.57804e-14
3.99529e-15
1.44046e-15
1.21291e-15
1.41794e-15
1.00112e-15
2.61726e-16
2.7621e-17
3.67035e-08
5.54601e-08
2.41701e-08
5.77566e-09
2.27726e-09
8.30068e-10
2.5261e-10
4.59527e-11
4.55931e-12
2.05023e-13
4.48878e-14
4.87367e-14
3.89376e-14
2.12045e-14
7.84469e-15
1.91243e-15
3.51922e-16
8.49138e-17
9.31932e-17
1.91441e-16
2.67357e-16
1.25452e-16
1.8429e-17
0.978245
0.990249
0.990254
0.990264
0.988026
0.987969
0.989396
0.990226
0.902526
0.880391
0.819085
0.760312
0.220981
0.161525
3.31168e-19
7.18657e-22
-3.37709e-12
5.56691e-24
-3.7746e-22
0.00055398
-4.49413e-23
1.65244e-05
6.03142e-05
5.80537e-05
2.26194e-05
5.38381e-05
0.000316076
0.000484977
0.0015257
0.000704437
0.000353424
0.000348469
0.0111612
0.00956723
0.00555987
0.000410611
0.00873945
0.0127045
0.012745
0.00436286
-1.86341e-10
7.07046e-05
0.0028172
0.00308955
1.8283e-09
3.08046e-24
6.98768e-25
-3.51042e-25
2.15678e-08
6.68475e-08
3.91315e-07
8.21674e-07
1.71025e-07
1.00276e-06
2.53603e-06
1.26647e-06
1.90484e-06
2.95257e-06
2.91291e-06
1.94497e-06
2.74408e-07
2.401e-06
2.82694e-06
3.35831e-06
1.58808e-09
1.34476e-07
3.54079e-07
4.139e-07
1.56561e-09
4.37878e-09
1.55873e-09
1.56433e-09
7.30388e-08
1.85046e-09
1.94202e-09
8.28352e-09
3.21514e-08
1.33058e-08
2.34975e-09
1.34295e-08
3.42641e-09
4.94452e-09
6.54815e-09
8.34146e-09
2.05528e-09
2.94912e-09
3.22759e-09
3.76291e-09
9.88043e-10
1.18845e-09
1.4006e-09
1.59658e-09
3.59344e-10
4.90558e-10
5.48335e-10
6.53785e-10
1.43432e-10
1.78197e-10
2.24069e-10
2.69426e-10
6.10785e-11
8.54584e-11
1.00363e-10
1.24574e-10
2.74777e-11
3.53511e-11
4.79818e-11
5.81384e-11
1.15966e-11
1.5495e-11
1.95136e-11
2.52124e-11
4.16767e-12
5.45214e-12
8.14246e-12
9.67998e-12
1.5473e-12
2.05144e-12
2.59873e-12
3.45935e-12
4.54151e-13
6.10001e-13
9.04886e-13
1.08551e-12
1.55332e-13
2.07564e-13
2.58627e-13
3.42028e-13
4.17505e-14
5.35059e-14
7.68707e-14
8.61294e-14
1.32363e-14
1.69239e-14
2.12335e-14
2.86096e-14
3.15592e-15
4.22585e-15
5.99995e-15
6.6733e-15
8.72783e-16
1.13827e-15
1.47443e-15
2.01478e-15
1.93688e-16
2.80101e-16
4.18784e-16
4.82582e-16
4.45975e-17
6.09412e-17
8.13073e-17
1.16884e-16
7.8365e-18
1.16768e-17
1.85184e-17
2.08599e-17
1.7227e-18
2.12971e-18
2.81138e-18
4.76493e-18
4.37964e-19
3.73437e-19
5.86181e-19
8.38493e-19
2.80948e-19
9.22685e-20
1.04366e-19
1.33288e-19
0.990272
0.969727
0.791448
0.806315
0.953377
0.970678
0.970678
0.861657
0.311622
0.377821
0.395933
0.289246
0.292543
0.554478
0.867188
0.908797
0.909643
0.908441
0.762398
0.990283
0.707804
0.313243
0.603003
0.919128
0.93074
0.911688
0.652778
0.0918214
0.0275739
0.00504374
0.000154454
0.0859999
0.282307
0.624908
0.814767
0.884054
0.898911
0.891637
0.555103
0.0706204
0.0580035
0.219912
0.347639
0.349977
0.440928
0.440763
0.21229
0.00937393
0.000153446
0.000153446
0.000153445
0.00242494
0.042384
0.144266
0.23378
0.336098
0.496229
1.46635e-05
8.29523e-23
-1.58324e-20
-3.60017e-20
1.23465e-19
0.00735035
0.311245
0.429806
0.395189
0.0576858
0.000153446
0.000153445
0.000153445
0.000153446
0.000153446
0.000878502
0.00103683
0.0015407
0.0120712
0.00155931
0.000341007
4.06626e-06
-3.27987e-23
-6.66208e-19
3.25211e-08
0.213817
0.382898
0.343947
0.0935832
0.000153446
0.000153446
0.000153445
0.000153446
0.000153446
0.000156504
0.00223949
0.00310769
0.00308933
0.00996136
0.00530371
0.000252494
1.48626e-05
3.92488e-23
0.0164598
0.0787452
0.0710564
0.0500186
0.0377658
0.0137184
0.00209184
0.00167087
0.000726503
0.000156245
0.000156036
0.000927706
0.00286665
0.00340907
0.010355
0.013476
0.0020518
0.00035637
0.000237787
0.00677331
0.000643607
0.000569235
0.000586337
0.000753558
0.00382315
0.00376072
0.00368216
0.00223599
0.00117384
0.000234006
0.000432221
0.00141708
0.0033135
0.00575968
0.0203245
0.00995244
0.00077026
0.000859849
0.00169475
0.00220594
0.00178869
0.00145644
0.000722563
0.000930345
0.00312577
0.0040462
0.00405104
0.00227785
0.000962048
0.000966374
0.000928973
0.000817211
0.0071208
0.0203228
0.0203235
0.0130184
0.00396488
0.00327103
0.00404137
0.00402882
0.0029784
0.000952728
1.83228e-05
0.000239617
0.00236953
0.002909
0.00164237
0.000659522
0.000725899
0.000409639
8.94706e-07
0.00740585
0.0197237
0.0203203
0.0203214
0.0203185
0.0118772
0.00300073
0.00189834
0.000892504
0.000351022
1.86748e-05
1.39729e-06
6.44735e-05
8.10606e-05
7.65231e-05
1.93335e-05
2.78063e-05
5.23433e-08
4.47748e-08
0.000694826
0.00260888
0.0116764
0.0106546
0.0039384
0.00128915
0.000284331
2.54934e-06
1.06704e-08
1.67253e-07
5.43708e-06
1.38393e-06
7.89451e-07
4.85924e-07
2.96624e-07
1.65411e-07
1.31618e-07
4.47784e-08
4.5199e-08
-1.46279e-25
3.73596e-14
2.6225e-07
1.48774e-08
4.16253e-08
2.04302e-06
7.54803e-08
7.61531e-08
1.87755e-09
1.86966e-09
1.86923e-09
9.91754e-07
1.3247e-05
1.83556e-05
1.78321e-05
1.42733e-05
1.227e-05
9.82195e-06
4.91566e-06
3.2997e-07
2.74076e-07
4.38147e-06
1.29578e-05
1.03282e-05
1.88619e-06
1.71651e-06
8.09188e-07
3.7222e-07
1.86938e-09
1.86951e-09
2.49136e-09
1.1416e-05
1.71438e-05
2.04133e-05
2.04106e-05
2.04112e-05
1.71875e-05
1.1846e-05
3.35018e-07
2.4182e-06
3.41694e-05
3.77563e-05
1.58791e-05
1.11725e-05
1.60014e-06
7.44799e-06
1.81058e-05
1.76251e-05
1.13806e-05
1.41941e-05
1.62839e-05
2.04272e-05
2.04142e-05
1.75341e-05
6.05095e-06
5.5934e-06
5.74311e-06
9.20904e-07
3.26811e-06
4.4298e-05
4.87787e-05
4.53435e-05
5.40184e-06
1.43414e-06
2.73947e-06
1.05497e-05
9.54227e-06
7.01019e-06
6.20206e-06
1.08496e-05
1.7148e-05
2.04144e-05
1.15659e-05
5.5842e-06
5.58527e-06
7.85919e-06
3.11659e-06
2.86611e-06
3.60251e-05
4.88525e-05
4.25351e-05
2.61307e-06
2.53814e-06
3.94169e-06
2.71631e-06
1.2875e-06
1.42889e-07
1.47978e-07
1.4295e-07
6.42342e-07
1.52149e-06
2.48553e-06
6.97305e-06
7.9536e-06
9.69873e-06
1.63277e-06
8.28478e-06
2.41769e-05
3.1001e-05
1.42738e-05
3.51153e-06
2.94372e-06
1.58321e-05
2.60025e-05
3.93476e-05
3.83891e-05
3.67651e-05
2.13657e-05
1.37509e-06
2.1515e-07
1.37723e-07
9.47149e-06
1.40671e-05
9.70714e-06
1.02828e-07
4.09228e-06
7.52215e-06
4.76928e-06
3.49212e-06
8.74962e-07
2.07298e-06
1.29547e-05
2.15868e-05
3.19909e-05
5.44573e-05
5.45912e-05
5.16706e-05
3.16057e-05
9.91713e-07
1.37083e-07
9.2766e-06
1.40534e-05
2.25343e-06
1.55345e-08
8.72347e-09
2.93099e-09
2.89049e-09
2.58608e-07
5.23216e-07
4.75723e-07
8.37888e-07
2.32313e-06
2.15111e-06
1.06366e-05
4.17248e-05
4.80468e-05
4.62939e-05
1.32801e-05
5.49843e-07
8.49204e-06
1.26305e-05
9.60067e-07
1.81455e-08
1.5916e-08
6.6539e-09
2.85071e-09
1.8455e-09
2.9679e-07
2.91628e-07
5.98417e-08
4.29212e-08
7.75164e-13
9.03839e-15
4.22134e-06
3.94002e-05
4.76463e-05
3.8992e-05
9.60673e-06
7.91801e-06
1.28668e-06
1.41802e-07
9.63103e-09
8.64644e-09
9.3335e-09
4.52866e-09
1.83894e-09
2.88535e-09
1.21685e-08
1.15245e-07
2.41656e-07
9.185e-08
1.63759e-09
1.17173e-10
3.58229e-05
4.76655e-05
4.05513e-05
9.93596e-06
5.73286e-06
2.15115e-07
1.41913e-07
4.37082e-09
5.71086e-09
7.20698e-09
3.98473e-09
1.53405e-09
3.33911e-10
2.72148e-07
6.58695e-07
6.60658e-07
3.97817e-07
5.28215e-08
3.36041e-11
2.08646e-05
4.11138e-05
1.88878e-05
8.47428e-06
1.06496e-06
8.76279e-09
1.30626e-07
1.86969e-09
2.77281e-09
4.0121e-09
4.31251e-09
6.44616e-09
3.01022e-08
3.01271e-07
5.23651e-07
5.50913e-07
3.77417e-07
4.56741e-08
1.54664e-08
8.28862e-07
2.53148e-06
6.78558e-08
1.08795e-06
3.78862e-08
8.75612e-09
2.28191e-07
7.81634e-10
1.22543e-09
2.06625e-09
3.66341e-09
7.5852e-09
1.81062e-08
5.6607e-08
1.99899e-07
2.0441e-07
8.04367e-08
1.37948e-08
5.65877e-09
3.81841e-09
3.65969e-09
3.81719e-09
4.08821e-09
6.75846e-09
1.38205e-08
2.40678e-07
3.31005e-10
5.244e-10
8.8874e-10
1.57262e-09
2.82891e-09
4.56997e-09
3.63922e-09
1.03602e-08
4.40015e-09
9.45641e-09
5.31309e-09
3.78397e-09
8.70621e-09
6.39552e-08
5.27552e-08
4.06746e-08
8.56006e-09
5.2559e-08
2.40791e-07
1.5225e-10
2.37904e-10
3.79924e-10
6.10119e-10
9.56095e-10
1.35329e-09
1.39713e-09
1.65059e-09
2.5033e-09
4.69914e-09
6.10836e-09
6.0932e-09
2.78103e-08
1.14631e-07
1.15141e-07
5.63093e-08
8.19287e-09
7.57353e-08
1.8953e-07
7.26781e-11
1.14914e-10
1.82467e-10
2.89651e-10
4.55312e-10
6.98703e-10
1.05513e-09
1.64515e-09
2.6053e-09
4.2424e-09
6.87078e-09
1.19777e-08
3.09861e-08
9.49039e-08
5.1198e-08
2.72009e-08
8.19891e-09
1.04661e-07
1.84072e-07
3.15622e-11
5.15866e-11
8.44948e-11
1.39603e-10
2.31826e-10
3.85888e-10
6.46546e-10
1.09412e-09
1.88475e-09
3.32468e-09
6.06063e-09
1.13953e-08
2.45931e-08
2.78081e-08
1.53393e-08
9.27688e-09
8.41026e-09
1.75892e-07
1.28674e-07
1.24e-11
2.03936e-11
3.47464e-11
5.93049e-11
1.03847e-10
1.85032e-10
3.33997e-10
6.0914e-10
1.13401e-09
2.18422e-09
4.35046e-09
8.83977e-09
1.82588e-08
9.34668e-09
7.96225e-09
6.66034e-09
6.57879e-08
1.75893e-07
1.28924e-07
4.35334e-12
7.12374e-12
1.27308e-11
2.20484e-11
4.0412e-11
7.71807e-11
1.52264e-10
3.05964e-10
6.1627e-10
1.2319e-09
2.58409e-09
5.48975e-09
1.1416e-08
1.12071e-08
1.19047e-08
2.88724e-08
6.92408e-08
9.57004e-08
1.36143e-07
1.39873e-12
2.21595e-12
4.07828e-12
6.79095e-12
1.29088e-11
2.57233e-11
5.4545e-11
1.23403e-10
2.70199e-10
6.14316e-10
1.33997e-09
2.48782e-09
4.14795e-09
7.00913e-09
1.2154e-08
3.47124e-08
6.41575e-08
8.07235e-09
3.96124e-07
3.91633e-13
6.97427e-13
1.04782e-12
1.74516e-12
3.0569e-12
5.5657e-12
1.01988e-11
1.73128e-11
4.59637e-11
1.39744e-10
4.10062e-10
7.38519e-10
5.86093e-10
1.94803e-09
6.53444e-09
1.16142e-08
1.43452e-08
5.47315e-09
3.98944e-07
1.27429e-13
1.75738e-13
2.57383e-13
3.91473e-13
6.20798e-13
1.01723e-12
1.56613e-12
1.71185e-12
4.51684e-12
1.70371e-11
6.34586e-11
1.63601e-10
1.69225e-10
2.1534e-10
1.06677e-09
1.33136e-09
5.05223e-09
5.24839e-09
3.99038e-07
3.22886e-14
4.57705e-14
6.18288e-14
8.53645e-14
1.24222e-13
1.90113e-13
2.93695e-13
3.83023e-13
6.05894e-13
2.1163e-12
8.17341e-12
2.81134e-11
5.6971e-11
1.01507e-10
6.96392e-10
1.5901e-09
4.1642e-09
9.79645e-09
3.20073e-07
9.2861e-15
1.16482e-14
1.49315e-14
1.93847e-14
2.62787e-14
3.88237e-14
6.17267e-14
1.03711e-13
1.89409e-13
4.48032e-13
1.7582e-12
7.18394e-12
2.7612e-11
5.34352e-11
4.73476e-10
2.15028e-09
5.61137e-09
1.08973e-08
7.83273e-08
2.26568e-15
2.9596e-15
3.68378e-15
4.64619e-15
6.23952e-15
9.24234e-15
1.51634e-14
2.87555e-14
6.53113e-14
1.74648e-13
5.05023e-13
2.21533e-12
1.21293e-11
4.16554e-11
2.08482e-10
1.78466e-09
5.55293e-09
1.0943e-08
5.18246e-10
5.63706e-16
7.31544e-16
9.13064e-16
1.18249e-15
1.70366e-15
2.76647e-15
5.03824e-15
1.03127e-14
2.46341e-14
6.9995e-14
2.26866e-13
8.34375e-13
4.31466e-12
2.12477e-11
9.22555e-11
7.65762e-10
3.56964e-09
6.85702e-09
5.15605e-10
1.31154e-16
1.7375e-16
2.22612e-16
3.08913e-16
5.1184e-16
9.99162e-16
2.16613e-15
4.92251e-15
1.17625e-14
3.11776e-14
9.61885e-14
3.43716e-13
1.50767e-12
7.86486e-12
3.76182e-11
1.64884e-10
6.79884e-10
1.65361e-09
5.15501e-10
2.94587e-17
3.79567e-17
4.96564e-17
7.62142e-17
1.51394e-16
3.6223e-16
9.50472e-16
2.51618e-15
6.34084e-15
1.59424e-14
4.29791e-14
1.31857e-13
4.87614e-13
2.35241e-12
1.18607e-11
5.66742e-11
2.17188e-10
1.521e-10
3.68838e-10
5.62349e-18
7.49012e-18
1.03498e-17
1.76062e-17
4.08045e-17
1.20238e-16
3.83108e-16
1.18152e-15
3.36053e-15
8.86515e-15
2.26103e-14
5.99635e-14
1.78562e-13
6.68654e-13
2.86776e-12
1.38771e-11
2.6359e-11
7.73344e-11
1.12275e-10
1.00107e-18
1.30973e-18
1.84172e-18
3.30995e-18
8.54398e-18
2.95466e-17
1.12919e-16
4.15767e-16
1.39323e-15
4.20056e-15
1.15569e-14
3.02719e-14
8.07119e-14
2.38067e-13
8.33808e-13
3.70081e-12
9.18897e-12
2.02731e-11
4.14287e-11
1.54964e-19
1.93513e-19
2.66265e-19
4.78194e-19
1.23743e-18
4.62408e-18
2.06847e-17
9.16534e-17
3.71288e-16
1.3476e-15
4.37381e-15
1.28883e-14
3.51882e-14
9.50934e-14
2.66941e-13
5.6488e-13
1.47887e-12
2.38906e-12
3.90263e-12
)
;

boundaryField
{
    leftWall
    {
        type            zeroGradient;
    }
    rightWall
    {
        type            zeroGradient;
    }
    lowerWall
    {
        type            zeroGradient;
    }
    atmosphere
    {
        type            inletOutlet;
        inletValue      uniform 0;
        value           nonuniform List<scalar> 
46
(
3.67035e-08
5.54601e-08
2.41701e-08
0
0
0
0
0
0
0
0
0
0
0
0
0
0
0
0
0
0
0
1.8429e-17
2.80948e-19
9.22687e-20
1.04366e-19
1.33288e-19
1.54964e-19
0
2.66266e-19
4.78194e-19
1.23743e-18
4.62408e-18
2.06847e-17
9.16534e-17
3.71288e-16
1.3476e-15
4.37381e-15
1.28883e-14
3.51882e-14
9.50934e-14
2.66941e-13
5.6488e-13
1.47887e-12
2.38906e-12
3.90263e-12
)
;
    }
    defaultFaces
    {
        type            empty;
    }
}


// ************************************************************************* //
