/*--------------------------------*- C++ -*----------------------------------*\
| =========                 |                                                 |
| \\      /  F ield         | OpenFOAM: The Open Source CFD Toolbox           |
|  \\    /   O peration     | Version:  2312                                  |
|   \\  /    A nd           | Website:  www.openfoam.com                      |
|    \\/     M anipulation  |                                                 |
\*---------------------------------------------------------------------------*/
FoamFile
{
    version     2.0;
    format      ascii;
    arch        "LSB;label=32;scalar=64";
    class       volScalarField;
    location    "3.95";
    object      alpha.air;
}
// * * * * * * * * * * * * * * * * * * * * * * * * * * * * * * * * * * * * * //

dimensions      [0 0 0 0 0 0 0];

internalField   nonuniform List<scalar> 
2268
(
8.3428e-10
8.27804e-10
8.27274e-10
7.89955e-10
5.83831e-10
3.56185e-10
1.4681e-10
7.77039e-11
5.62365e-11
5.07144e-11
4.04835e-11
3.99802e-11
4.82196e-11
6.67228e-11
9.19406e-11
1.43975e-10
1.8532e-10
2.00421e-10
1.82333e-10
1.82334e-10
6.52674e-09
2.29221e-07
4.93615e-07
1.00116e-09
1.78976e-09
2.25167e-09
2.62206e-09
2.21329e-09
5.75354e-10
6.27503e-11
6.5739e-11
1.98768e-10
3.68632e-10
1.74696e-10
1.68484e-10
2.39044e-10
3.34237e-10
4.87817e-10
7.77229e-10
9.36823e-10
7.02307e-10
3.86849e-10
2.37779e-10
8.62456e-08
7.88626e-07
1.08202e-06
1.04019e-09
2.39557e-09
2.07399e-09
2.26299e-09
2.39286e-09
1.32507e-09
5.46787e-09
6.51938e-11
9.14728e-09
7.87272e-10
8.04859e-10
9.58141e-10
5.14231e-10
3.2161e-10
3.22276e-10
1.37713e-09
5.981e-09
1.69662e-08
1.97232e-08
6.39044e-08
2.01764e-07
5.2719e-07
5.50354e-07
6.53101e-10
6.54478e-10
6.53101e-10
6.54478e-10
6.53101e-10
1.02178e-07
5.1864e-07
1.4889e-07
6.75843e-10
6.85722e-10
8.30905e-10
5.3986e-09
5.84396e-08
1.82369e-07
4.82773e-08
1.64351e-09
2.0964e-08
5.01966e-08
4.96133e-08
2.96902e-08
2.97237e-08
2.96955e-08
3.69365e-05
0.000197284
0.000377226
0.000518668
0.00039008
7.54994e-05
2.70568e-08
1.10455e-07
6.57043e-07
5.55418e-07
6.86052e-10
6.868e-10
1.14263e-07
1.71951e-06
2.20982e-06
1.22959e-07
7.29496e-08
2.43889e-06
4.66285e-08
4.29098e-08
3.68987e-08
2.75847e-07
0.00059125
0.00394646
0.00125631
0.00132623
0.00132622
0.00132623
0.00122541
0.000189817
3.64826e-09
3.78431e-09
2.46196e-05
9.74642e-05
0.000132051
7.68008e-05
9.95219e-06
3.331e-06
1.16178e-06
5.10055e-08
0.000654251
0.00377495
0.0061418
0.00522272
0.0029685
0.00509585
0.00612244
0.00052702
0.000966247
0.00132624
0.00132623
0.00132624
0.00132498
0.000145828
3.648e-09
2.39335e-06
0.00012937
0.000246157
0.000245904
0.000181878
6.56907e-05
0.000288648
0.000664961
0.00129875
0.00941648
0.0159491
0.0159322
0.00883301
0.00570373
0.00595027
0.000295231
0.000295039
0.000706388
0.000839162
0.000698768
0.000582986
0.000465034
0.000165813
1.97909e-05
3.4379e-05
5.25245e-05
0.000148113
0.000205819
5.71372e-05
0.000527616
0.00109704
0.00067786
0.00121895
0.0084263
0.0158831
0.0124533
0.00285436
0.00279183
0.000229286
0.00121861
0.00269181
0.00553051
0.00911934
0.00917817
0.00917816
0.00610566
0.00354887
0.00352356
0.003523
0.00348938
0.00347587
0.0025675
0.0025675
0.00257814
0.0060563
0.00605397
0.00605461
0.000229286
0.000369256
0.000570398
0.000941707
0.00116845
0.00116857
0.00202594
0.00597104
0.0074496
0.00557568
0.00392744
0.00334439
0.00322828
0.00256751
0.0025675
0.00259539
0.00673363
0.00890891
0.00727023
0.000509065
0.0042947
0.00525323
0.005239
0.00480448
0.00372571
0.00504916
0.0158891
0.0189699
0.0189644
0.00685299
0.00337702
0.00384508
0.00704774
0.00528049
0.0027008
0.00564008
0.013728
0.0102985
0.0028504
0.00426399
0.00496243
0.00622472
0.00510315
0.0044671
0.0079765
0.0153785
0.0148311
0.0117262
0.0156867
0.0259521
0.0267983
0.0261001
0.0197369
0.0240611
0.0217096
0.0139308
0.0135148
0.0032288
0.00311827
0.00313098
0.00548016
0.00820456
0.00559694
0.00393839
0.00393836
0.00657975
0.0116705
0.0116591
0.0188517
0.0263223
0.0166907
0.0155285
0.0268371
0.0326586
0.0320473
0.0167701
0.0042489
0.00680075
0.00527456
0.00484084
0.00807809
0.00710137
0.00394056
0.00393747
0.0169663
0.0385509
0.0311807
0.0154458
0.0154602
0.018483
0.0155288
0.0155487
0.015608
0.0216305
0.0127268
0.00257002
0.0188469
0.0342726
0.0176135
0.00841476
0.0103229
0.0171395
0.0174007
0.0581758
0.064766
0.0514714
0.0168704
0.0223645
0.0714439
0.0409647
0.0277396
0.0424544
0.0245243
0.00994729
0.0025615
0.0121967
0.0476119
0.0402367
0.00905866
0.00873189
0.020087
0.0376123
0.0640788
0.0559012
0.0333104
0.0163797
0.0784722
0.0932567
0.0777786
0.0545666
0.0576999
0.022402
0.00999897
0.000294971
0.000294937
0.000294754
0.000254047
0.000217856
0.000215751
0.000268382
0.000267841
0.000213779
3.79282e-05
2.83809e-05
3.03915e-05
5.34516e-05
5.68097e-05
5.7127e-05
8.10908e-05
0.000113712
0.000122625
0.00344025
0.00937531
0.0134962
0.00775133
0.00342281
0.000295231
0.000797073
0.000314012
0.000297438
0.000232068
0.000195183
0.000194786
0.000221455
0.000231237
0.000189563
0.000129223
0.000103248
0.000101019
5.68871e-05
0.00030953
0.00051257
0.000642151
0.00256289
0.0134296
0.0219849
0.0189914
0.0126207
0.00319033
0.00666084
0.00243417
0.00455162
0.00719292
0.00977058
0.0138674
0.0144823
0.0187462
0.0256653
0.0278434
0.0221261
0.0127029
0.0116793
0.0156326
0.0215945
0.0264289
0.0306617
0.0395723
0.0766736
0.0763511
0.044227
0.0135913
0.0136127
0.060007
0.0339078
0.0257283
0.0390074
0.064561
0.0738479
0.0738443
0.0733255
0.0739358
0.0739361
0.073936
0.0703376
0.0410568
0.045034
0.0787245
0.0907487
0.0907487
0.0907487
0.0907419
0.0703216
0.0322696
0.0244513
0.0255975
0.0601143
0.053093
0.0244004
0.0133635
0.0175335
0.0177759
0.0166417
0.0177108
0.0430799
0.0739292
0.0739346
0.0429157
0.00452586
0.00365701
0.0316599
0.0884944
0.0907487
0.0702674
0.0235926
0.000304873
0.000803948
0.00538676
0.00366183
0.034912
0.00902878
0.000420516
0.000275258
0.000218141
0.000195735
0.000160297
0.000158718
0.000167035
0.000236579
0.000254027
0.000224571
0.000223571
0.000223137
0.000222871
0.0116641
0.0224477
0.000444428
0.000319425
0.000306836
0.000279268
0.000186587
0.000174054
0.349934
0.379448
0.367613
0.324398
0.278523
0.240157
0.206692
0.174205
0.139072
0.101327
0.0627813
0.0343341
0.0174276
0.00627654
0.000833118
0.000353348
0.000349295
0.000250715
0.000242636
0.000148566
0.000146787
0.000151009
0.00015386
0.999616
0.999369
0.998958
0.996883
0.985129
0.968953
0.949375
0.925537
0.894759
0.849516
0.776262
0.701641
0.636308
0.557405
0.446027
0.262474
0.111755
0.0836044
0.123694
0.133666
0.0603359
0.0173921
0.00406253
1
1
1
1
1
0.999999
0.999999
0.999994
0.999941
0.999907
0.999169
0.995358
0.991528
0.991941
0.992482
0.995679
0.955317
0.881536
0.850764
0.829198
0.737764
0.621481
0.521705
1
1
1
0.999999
0.999998
0.999998
0.999999
0.999999
1
0.999999
0.999999
0.999981
0.999974
0.999999
0.999999
0.999999
0.999978
0.999774
0.997771
0.991569
0.99444
0.996362
0.996444
1
1
0.999999
0.999997
0.999997
0.999997
1
1
1
1
0.999999
0.999998
0.999995
0.999988
0.999987
0.999988
0.999994
0.999994
0.999963
0.999954
0.999961
0.999982
0.99999
1
1
0.999999
0.999997
0.999997
0.999996
0.999993
0.999978
0.999996
1
0.999996
0.999987
0.999987
0.999987
0.999988
0.999997
0.999999
0.999998
0.999997
0.999997
0.999997
0.999996
0.999998
1
1
1
1
0.999999
0.999991
0.999944
0.999931
0.999957
0.999996
0.999992
0.99999
0.999997
1
1
1
0.999999
0.999999
0.999998
0.999998
0.999997
0.999997
0.999998
1
1
1
1
0.999999
0.999986
0.999931
0.999931
0.999933
0.999948
0.999937
0.999943
0.999985
1
0.999999
0.999998
0.999986
0.999985
0.999997
1
0.999999
0.999999
0.999999
1
1
1
1
1
0.999996
0.999975
0.99995
0.999941
0.99993
0.999926
0.999926
0.999959
0.999988
0.999986
0.999988
0.999972
0.999965
0.999974
0.999997
1
1
0.999999
1
1
1
1
1
1
1
1
0.999999
0.999991
0.999973
0.999962
0.999966
0.99998
0.99998
0.999977
0.999974
0.999965
0.999965
0.999974
0.999983
0.999987
0.999998
1
1
1
1
1
1
1
1
1
1
1
0.999997
0.999995
0.999991
0.99999
0.999996
0.999999
0.999986
0.999967
0.999962
0.999962
0.999962
0.999986
1
1
1
1
1
1
1
1
1
1
1
1
1
1
1
1
1
1
0.999999
0.999993
0.999976
0.99997
0.999991
1
1
1
1
1
1
1
1
1
1
1
1
1
1
1
1
1
1
1
1
1
0.999999
0.999999
1
1
1
1
1
1
1
1
1
1
1
1
1
1
1
1
1
1
1
1
1
1
1
1
1
1
1
1
1
1
1
1
1
1
1
1
1
1
1
1
1
1
1
1
1
1
1
1
1
1
1
1
1
1
1
1
1
1
1
1
1
1
1
1
1
1
1
1
1
1
1
1
1
1
1
1
1
1
1
1
1
1
1
1
1
1
1
1
1
1
1
1
1
1
1
1
1
1
1
1
1
1
1
1
1
1
1
1
1
1
1
1
1
1
1
1
1
1
1
1
1
1
1
1
1
1
1
1
1
1
1
1
1
1
1
1
1
1
1
1
1
1
1
1
1
1
1
1
1
1
1
1
1
1
1
1
1
1
1
1
1
1
1
1
1
1
1
1
1
1
1
1
1
1
1
1
1
1
1
1
1
1
1
1
1
1
1
1
1
1
1
1
1
1
1
1
1
1
1
1
1
1
1
1
1
1
1
1
1
1
1
1
1
1
1
1
1
1
1
1
1
1
1
1
1
1
1
1
1
1
1
1
1
1
1
1
1
1
1
1
1
1
1
1
1
1
1
1
1
1
1
1
1
1
1
1
0.999999
0.999999
0.999999
0.999999
1
1
1
1
1
1
1
1
1
1
1
1
1
1
1
1
1
1
1
0.999999
0.999999
0.999999
0.999999
1
1
1
1
1
1
1
1
1
1
1
1
1
1
1
1
1
1
0.999999
0.999999
0.999999
0.999999
0.999999
1
1
1
1
1
1
1
1
1
1
1
1
1
1
1
1
1
1
0.999999
0.999999
0.999999
0.999999
0.999999
1
1
1
1
1
1
1
1
1
1
1
1
1
1
1
1
1
1
0.999999
0.999999
1
1
1
1
1
1
1
1
1
1
1
1
1
1
1
1
1
1
1
1
1
0.999999
0.999999
1
1
1
1
1
1
1
1
1
1
1
1
1
1
1
1
1
1
1
1
1
1
1
1
1
1
1
1
1
1
1
1
1
1
1
1
1
1
1
1
1
1
1
1
1
1
1
1
1
1
1
1
1
1
1
1
1
1
1
1
1
1
1
1
1
1
1
1
1
1
1
1
1
1
1
1
1
1
1
1
1
1
1
1
1
1
1
1
1
1
1
1
1
1
1
1
1
1
1
1
1
1
1
1
1
1
1
1
1
1
1
1
1
1
1
1
1
1
1
1
1
1
1
1
1
1
1
1
1
1
1
1
1
1
1
1
1
1
1
1
1
1
1
1
1
1
1
1
1
1
1
1
1
1
1
1
1
0.00240999
0.00241254
0.0024132
0.00241369
0.00320365
0.00350218
0.00291755
0.00242576
0.0235477
0.0426579
0.0346682
0.0105572
0.0321186
0.0484506
0.0484643
0.0244131
0.000455292
0.00969475
0.0117799
0.00165109
0.000319975
0.000409489
0.000403357
0.000516973
0.000221951
0.000181394
0.000156634
6.41934e-05
0.000119707
5.31152e-05
5.01362e-05
0.000173086
0.419545
0.332666
0.263421
0.206627
0.99342
0.988645
0.974661
0.94981
0.999993
0.999992
0.99852
0.997542
0.999999
0.999999
0.99999
0.999986
0.999999
0.999999
0.999997
0.999999
1
0.999999
0.999997
0.999999
0.999998
0.999997
0.999997
0.999998
1
0.999997
0.999997
0.999997
1
1
0.999999
0.999999
1
1
1
1
0.999999
1
1
1
1
1
1
1
1
1
1
1
1
1
1
1
1
1
1
1
1
1
1
1
1
1
1
1
1
1
1
1
1
1
1
1
1
1
1
1
1
1
1
1
1
1
1
1
1
1
1
1
1
1
1
1
1
1
1
1
1
1
1
1
1
1
1
1
1
1
1
1
1
1
1
1
1
1
1
1
1
1
1
1
1
1
1
1
1
1
1
1
1
1
1
1
0.00256055
0.0123038
0.0476853
0.0442732
0.0103129
0.0154247
0.0198038
0.0453853
0.0491465
0.033977
0.0331173
0.083635
0.0932566
0.0932567
0.0932567
0.0592588
0.0581784
0.0196014
0.00945544
0.00260333
0.0192322
0.0476799
0.0476829
0.0406129
0.0353443
0.0695078
0.0682672
0.0444622
0.0415689
0.0645388
0.0658217
0.0835813
0.0453278
0.0561365
0.0401815
0.0336708
0.0230541
0.0175742
0.0182491
0.0293832
0.0430145
0.0476823
0.0370197
0.0411345
0.183053
0.178063
0.0474308
0.0279458
0.0280274
0.00505804
0.0210577
0.0390083
0.0471953
0.0141099
0.0134321
0.0220354
0.0223365
0.00191021
0.0109003
0.0259574
0.0140167
0.000293765
0.117145
0.187241
0.187238
0.163623
0.0399112
0.00116225
0.00116467
0.00135807
0.0265932
0.0449074
0.0449196
0.013507
0.00312896
0.0106363
0.000134167
0.00011547
0.001135
0.000287552
0.000284967
0.116992
0.187239
0.187241
0.187239
0.131677
0.00655355
0.00120142
0.00134644
0.0035673
0.00339624
0.038947
0.026329
0.0029139
0.00287148
0.000137518
4.64325e-08
6.47619e-05
0.000289205
0.000283297
0.0371023
0.128601
0.14221
0.156544
0.106292
0.0101399
0.000333011
0.000546488
0.0014438
0.00181764
0.00510036
0.0158356
0.00291918
0.00313509
3.32996e-06
3.65541e-08
7.36425e-19
0.000244238
0.000416065
-3.84342e-07
0.00464841
0.00476487
0.00617837
0.00435731
0.000284108
0.000238667
0.00024157
0.00023931
0.000592735
0.000659335
0.000641194
0.00992141
0.00375779
3.63675e-10
2.33446e-12
1.1083e-20
-3.25932e-08
-5.2969e-07
-2.33202e-07
3.53901e-07
8.93889e-06
1.51157e-05
0.00551757
0.0185273
0.0396583
0.0697006
0.106477
0.148227
0.211058
0.370245
0.499094
0.372689
0.118147
0.0942367
0.222912
0.322866
0.284176
0.254763
0.315185
0.487142
0.538288
0.56272
0.615519
0.702651
0.782183
0.834154
0.872165
0.915378
0.965348
0.988928
0.972834
0.882015
0.780574
0.76804
0.874216
0.939444
0.930209
0.944084
0.988605
0.996399
0.997287
0.998166
0.998604
0.998992
0.999283
0.999568
0.999674
0.999496
0.999561
0.999729
0.999622
0.999185
0.991476
0.98905
0.992402
0.996031
0.99887
0.999957
0.999999
0.999999
0.999993
0.999998
0.999998
0.999998
0.999996
0.999993
0.999991
0.99999
0.999987
0.999985
0.999992
0.999997
0.999997
1
0.999996
0.999995
0.999999
0.999999
0.999999
0.999999
0.999998
0.999915
0.999767
0.999749
0.999755
0.999769
0.99978
0.999806
1
0.999999
0.999986
0.999936
0.999896
0.999889
0.999876
0.999932
0.999999
0.999999
0.999999
0.99998
0.99977
0.999748
0.999748
0.999857
0.99992
0.999892
0.99991
1
0.999992
0.999881
0.999852
0.999858
0.999863
0.999871
0.999869
0.999964
0.999983
0.999985
0.999842
0.999754
0.999754
0.999905
0.999963
0.999974
0.999974
0.999963
0.999999
0.99999
0.999878
0.999853
0.999857
0.999935
0.999947
0.999958
0.999963
0.999986
0.999973
0.999826
0.999767
0.999793
0.999864
0.999968
0.999975
0.99997
0.99992
0.999997
0.999995
0.99994
0.99992
0.99994
0.999996
0.999997
0.999997
0.999996
0.999994
0.999981
0.999955
0.99997
0.999983
0.999975
0.999879
0.999877
0.999968
0.99992
0.999998
0.999991
0.999972
0.999962
0.99998
0.999991
0.999996
0.999984
0.999974
0.999964
0.99996
0.999955
0.999966
0.999991
0.999991
0.999947
0.99987
0.999906
0.999937
1
0.999995
0.999992
0.999992
0.99996
0.999953
0.999972
0.999976
0.999976
0.999965
0.999944
0.999932
0.999916
0.999937
0.999991
0.999976
0.999871
0.999871
0.999989
1
1
1
0.999999
0.999966
0.999952
0.999953
0.999953
0.999974
0.999994
0.999985
0.999943
0.999915
0.999915
0.999977
0.999968
0.999871
0.999909
0.999997
1
1
1
1
0.999996
0.99997
0.999953
0.999954
0.999978
0.999999
0.999998
0.999978
0.999916
0.999914
0.999951
0.999915
0.999872
0.99997
0.999999
1
1
1
1
1
0.999999
0.999991
0.999991
0.999997
1
0.999999
0.999988
0.999921
0.999915
0.999948
0.999891
0.99989
0.999991
1
1
1
1
1
1
1
1
0.999999
0.999999
0.999999
1
0.999999
0.999957
0.999938
0.999974
0.999898
0.999958
0.999997
1
1
1
1
1
1
1
1
0.999999
0.999999
0.999999
1
1
0.999999
0.999996
0.999995
0.999978
0.999994
0.999997
0.999999
1
1
1
1
1
1
1
1
1
1
1
1
1
1
0.999996
1
0.999998
0.999999
1
1
1
1
1
1
1
1
1
1
1
1
1
1
1
1
1
1
1
1
1
1
1
1
1
1
1
1
1
1
1
1
1
1
1
1
1
1
1
1
1
1
1
1
1
1
1
1
1
1
1
1
1
1
1
1
1
1
1
1
1
1
1
1
1
1
1
1
1
1
1
1
1
1
1
1
1
1
1
1
1
1
1
1
1
1
1
1
1
1
1
1
1
1
1
1
1
1
1
1
1
1
1
1
1
1
1
1
1
1
1
1
1
1
0.999999
1
1
1
1
1
1
1
1
1
1
1
1
1
1
1
1
0.999999
1
0.999996
1
1
1
1
1
1
1
1
1
1
1
1
1
1
1
1
1
1
0.999996
1
1
1
1
1
1
1
1
1
1
1
1
1
0.999999
0.999997
1
1
1
0.999996
1
1
1
1
1
1
1
1
1
1
1
1
1
0.999998
0.999993
0.999994
1
1
0.999998
1
1
1
1
1
1
1
1
1
1
1
1
1
0.999999
0.999993
0.999993
0.999997
1
0.999999
1
1
1
1
1
1
1
1
1
1
1
1
1
1
0.999997
0.999993
0.999993
0.999996
0.999997
1
1
1
1
1
1
1
1
1
1
1
1
1
1
0.999999
0.999995
0.999993
0.999995
0.999998
1
1
1
1
1
1
1
1
1
1
1
1
1
1
1
1
0.999998
0.999999
1
1
1
1
1
1
1
1
1
1
1
1
1
1
1
1
1
1
1
1
1
1
1
1
1
1
1
1
1
1
1
1
1
1
1
1
1
1
1
1
1
1
1
1
1
1
1
1
1
1
1
1
1
1
1
1
1
1
1
1
1
1
1
1
1
1
1
1
1
1
1
1
1
1
1
1
1
)
;

boundaryField
{
    leftWall
    {
        type            alphaContactAngle;
        thetaProperties 
6
(
(galistan air) 90 0 0 0
(oil galistan) 90 0 0 0
(water oil) 90 0 0 0
(water air) 90 0 0 0
(oil air) 90 0 0 0
(water galistan) 90 0 0 0
);
        value           nonuniform List<scalar> 
50
(
8.3428e-10
1.00116e-09
1.04019e-09
6.53101e-10
0.000197284
0.00125631
0.00052702
0.000295231
0.000294971
0.000295231
0.00666084
0.060007
0.0601143
0.034912
0.349934
0.999616
1
1
1
1
1
1
1
1
1
1
1
1
1
1
1
1
1
1
1
1
1
1
1
1
1
1
1
1
1
1
1
1
1
1
)
;
    }
    rightWall
    {
        type            alphaContactAngle;
        thetaProperties 
6
(
(galistan air) 90 0 0 0
(oil galistan) 90 0 0 0
(water oil) 90 0 0 0
(water air) 90 0 0 0
(oil air) 90 0 0 0
(water galistan) 90 0 0 0
);
        value           nonuniform List<scalar> 
50
(
0.00605461
0.00727023
0.0102985
0.0135148
0.0167701
0.0127268
0.00994729
0.00999897
0.00945544
0.0175742
0.0223365
0.0106363
0.00287148
0.00313509
0.00375779
0.372689
0.972834
0.999729
0.999987
0.999806
0.99991
0.999963
0.99992
0.99992
0.999937
0.999989
0.999997
0.999999
1
1
0.999999
1
1
1
1
1
1
0.999999
0.999996
0.999996
0.999996
0.999998
0.999999
0.999997
0.999998
1
1
1
1
1
)
;
    }
    lowerWall
    {
        type            alphaContactAngle;
        thetaProperties 
6
(
(galistan air) 90 0 0 0
(oil galistan) 90 0 0 0
(water oil) 90 0 0 0
(water air) 90 0 0 0
(oil air) 90 0 0 0
(water galistan) 90 0 0 0
);
        value           nonuniform List<scalar> 
62
(
8.3428e-10
8.27804e-10
8.27274e-10
7.89955e-10
5.83831e-10
3.56185e-10
1.4681e-10
7.77039e-11
5.62365e-11
5.07144e-11
4.04835e-11
3.99802e-11
4.82196e-11
6.67228e-11
9.19406e-11
1.43975e-10
1.8532e-10
2.00421e-10
1.82333e-10
1.82334e-10
6.52674e-09
2.29221e-07
4.93615e-07
4.93615e-07
1.08202e-06
5.50354e-07
3.69365e-05
0.00394646
0.00612244
0.00595027
0.00279183
0.00240999
0.00241254
0.0024132
0.00241369
0.000229286
0.000229286
0.000509065
0.0028504
0.0032288
0.0042489
0.00257002
0.0025615
0.000229286
0.00121861
0.00269181
0.00553051
0.00911934
0.00917817
0.00917816
0.00610566
0.00354887
0.00352356
0.003523
0.00348938
0.00347587
0.0025675
0.0025675
0.00257814
0.0060563
0.00605397
0.00605461
)
;
    }
    atmosphere
    {
        type            inletOutlet;
        inletValue      uniform 1;
        value           nonuniform List<scalar> 
46
(
1
1
1
1
1
1
1
1
1
1
1
1
1
1
1
1
1
1
1
1
1
1
1
1
1
1
1
1
1
1
1
1
1
1
1
1
1
1
1
1
1
1
1
1
1
1
)
;
    }
    defaultFaces
    {
        type            empty;
    }
}


// ************************************************************************* //
