/*--------------------------------*- C++ -*----------------------------------*\
| =========                 |                                                 |
| \\      /  F ield         | OpenFOAM: The Open Source CFD Toolbox           |
|  \\    /   O peration     | Version:  2312                                  |
|   \\  /    A nd           | Website:  www.openfoam.com                      |
|    \\/     M anipulation  |                                                 |
\*---------------------------------------------------------------------------*/
FoamFile
{
    version     2.0;
    format      ascii;
    arch        "LSB;label=32;scalar=64";
    class       volScalarField;
    location    "3.95";
    object      p;
}
// * * * * * * * * * * * * * * * * * * * * * * * * * * * * * * * * * * * * * //

dimensions      [1 -1 -2 0 0 0 0];

internalField   nonuniform List<scalar> 
2268
(
4885.79
4904.35
4940.68
4993
5059.15
5136.37
5220.3
5304.38
5380.37
5440.33
5479.23
5496.12
5492.84
5472.28
5438.91
5397.5
5352.2
5307.1
5266.14
5231.25
5203.63
5184.4
5174.18
4085.09
4103.4
4140.03
4192.77
4259.53
4337.78
4423.27
4509.34
4587.28
4648.49
4687.72
4704.32
4700.17
4678.44
4643.78
4601.21
4554.85
4508.71
4467.13
4431.83
4403.86
4383.94
4373.19
3279.71
3297.9
3335.03
3388.55
3456.4
3536.56
3625.13
3715.23
3797.21
3861.11
3901.04
3916.96
3911.07
3887.01
3849.79
3804.95
3756.52
3708.3
3665.56
3629.47
3600.87
3579.89
3568.5
2468.87
2487.58
2525.77
2580.54
2649.85
2732.7
2825.72
2921.9
3010.18
3078.29
3119.2
3133.96
3125.84
3098.38
3057.27
3009.03
2957.48
2905.83
2861.42
2823.99
2794.48
2772.21
2759.85
1652.37
1672.35
1711.97
1768.1
1839.06
1925.32
2024.14
2128.67
2226.08
2300.45
2342.67
2355.8
2344.78
2312.87
2266.4
2213.49
2157.69
2100.77
2054.43
2014.98
1984.2
1961.08
1948.25
1025.39
1035.92
1057.1
1088.47
1130.29
1187.64
1262.26
1352.09
1446.8
1529.18
1572.93
1583.57
1569.56
1532.66
1481.78
1429.04
1377.56
1327.23
1293.41
1265.05
1241.69
1227.98
1222.88
781.875
782.017
782.985
785.433
788.975
798.136
815.397
843.992
883.341
927.923
955.628
965.155
955.981
936.388
913.714
893.162
875.315
861.188
856.207
852.554
849.277
851.291
857.321
719.615
718.928
717.689
715.323
710.837
704.775
696.873
688.185
680.943
676.251
676.721
681.96
686.673
692.95
702.89
713.334
722.781
733.964
744.433
753.187
760.613
768.573
780.979
2295.66
2292.13
2330.06
2363.91
2396.41
2436.85
2500.64
2583
2676.96
2745.96
2787.13
2793.04
2792.26
2793.7
2837.73
2929.13
3055.84
3185.55
3268.25
1564.41
1558.35
1596.2
1627.82
1655.15
1693.01
1748.24
1824.04
1915.06
1988.09
2029.29
2029.15
2025.67
2026.06
2063.36
2154.94
2288.06
2426.46
2513.89
1104.07
1123.95
1163.66
1179.96
1184.49
1188.49
1200.02
1228.57
1280.04
1339.74
1386.39
1385.35
1365.05
1362.27
1392.22
1481.52
1606.59
1730.24
1821.19
965.764
1001.86
1048.89
1052.95
1034.96
1015.24
999.625
989.942
987.39
996.724
1011.7
1005.45
994.131
1003.13
1016.68
1054.39
1124.66
1218.74
1313.13
907.52
939.512
987.007
993.111
974.362
955.593
943.875
931.223
915.619
894.591
873.103
870.975
875.997
888.991
893.952
890.691
894.812
927.02
983.375
848.616
862.852
914.615
926.561
908.689
889.851
880.35
869.221
853.335
830.954
818
817.36
819.822
830.539
835.567
831.916
818.783
806.23
800.992
779.499
785.846
828.537
845.837
837.139
823.067
814.846
805.128
788.489
768.8
758.243
758.419
760.546
770.525
774.219
770.799
764.024
756.232
751.628
686.925
714.173
741.016
756.074
759.806
758.629
753.069
744.654
727.157
713.409
702.323
699.511
703.217
707.426
710.322
709.757
709.74
708.108
704.76
623.257
622.688
621.559
619.143
615.153
609.896
603.714
597.333
591.841
587.61
586.152
589.008
595.953
604.865
614.25
623.647
632.783
642.794
652.589
661.588
669.125
674.548
675.749
492.497
492.568
491.906
489.796
486.259
481.946
477.449
473.276
470.071
468.39
468.944
471.843
477.348
484.854
492.926
501.47
509.728
518.227
525.997
533.949
541.905
546.123
546.442
361.821
363.481
363.818
362.051
358.469
354.714
351.451
349.242
348.086
348.049
349.305
352.081
356.559
362.473
369.226
377.387
385.612
393.684
400.239
407.163
413.717
417.068
416.867
237.424
239.58
240.964
240.589
239.463
238.367
237.393
237.067
237.934
239.916
243.314
247.993
253.879
259.955
266.38
273.49
281.869
290.671
299.065
305.532
310.873
314.659
316.106
143.82
143.995
145.352
147.245
149.702
152.039
153.999
156.123
159.009
162.797
167.637
173.618
180.649
187.887
195.142
202.052
209.336
216.92
225.091
231.976
237.61
242.798
247.65
75.7478
74.4081
75.9328
78.8251
82.4709
86.0041
89.4963
93.2434
97.3667
102.138
107.112
112.529
118.794
125.91
133.61
141.435
148.245
154.301
159.863
165.839
171.924
178.156
185.094
19.6298
18.8003
19.5482
21.4919
23.8349
26.1644
28.6719
31.5825
34.9673
39.3088
44.2281
49.9872
56.2984
63.1009
70.489
78.9419
86.6784
92.2232
96.3097
100.623
106.623
113.613
121.553
-1.10176
-1.04047
-0.9214
-0.725816
-0.326226
0.205143
0.870721
1.73059
2.78178
4.36578
6.37639
8.98867
12.0439
15.3465
19.5446
24.6999
30.4975
34.5287
36.8615
39.4493
44.64
51.4022
58.8103
-1.3442
-1.34921
-1.36039
-1.36668
-1.37462
-1.37787
-1.37693
-1.36918
-1.34007
-1.29853
-1.24804
-1.12855
-0.885502
-0.600853
-0.231659
-0.370203
0.670088
2.4778
4.00875
5.40006
7.6609
10.9585
14.0329
-1.48574
-1.48857
-1.49499
-1.50142
-1.50763
-1.51193
-1.51482
-1.5186
-1.52849
-1.53862
-1.54972
-1.57511
-1.59025
-1.59075
-1.59403
-1.59762
-1.59983
-1.54067
-1.43296
-1.34263
-1.5125
-1.63311
-1.62329
-1.62676
-1.62886
-1.63303
-1.63805
-1.64312
-1.64752
-1.65138
-1.65663
-1.66466
-1.67094
-1.67771
-1.69144
-1.71047
-1.72467
-1.73924
-1.75632
-1.79706
-1.83324
-1.85529
-1.89488
-1.91309
-1.92542
-1.94493
-1.76638
-1.76807
-1.77119
-1.77516
-1.77933
-1.78327
-1.78694
-1.79266
-1.80034
-1.80777
-1.81524
-1.8267
-1.84148
-1.85403
-1.86399
-1.87327
-1.89048
-1.92061
-1.9485
-1.97936
-2.00077
-2.01489
-2.03671
-1.90462
-1.90606
-1.9086
-1.91199
-1.91575
-1.9196
-1.92347
-1.92941
-1.93606
-1.94246
-1.94989
-1.96045
-1.97302
-1.98467
-1.995
-2.00563
-2.02057
-2.04277
-2.0686
-2.09268
-2.10769
-2.11478
-2.12264
-2.04156
-2.04287
-2.04506
-2.04817
-2.05191
-2.05619
-2.0611
-2.06685
-2.07268
-2.07737
-2.08443
-2.09332
-2.10384
-2.11423
-2.1242
-2.13493
-2.14817
-2.16635
-2.18854
-2.20961
-2.22481
-2.23479
-2.24246
-2.17736
-2.17856
-2.18057
-2.1835
-2.1872
-2.19178
-2.19759
-2.20335
-2.20896
-2.21418
-2.22064
-2.22815
-2.23665
-2.24546
-2.25472
-2.26483
-2.27695
-2.29236
-2.31086
-2.32901
-2.3424
-2.35295
-2.36296
-2.31212
-2.31322
-2.3151
-2.31785
-2.32135
-2.32574
-2.33127
-2.33709
-2.34293
-2.34909
-2.35579
-2.36308
-2.37036
-2.37795
-2.38626
-2.39551
-2.4065
-2.41944
-2.43391
-2.44802
-2.46029
-2.47074
-2.48087
-2.44595
-2.44699
-2.44874
-2.4513
-2.45457
-2.4586
-2.46342
-2.46872
-2.47435
-2.4805
-2.48736
-2.49471
-2.50192
-2.50913
-2.51679
-2.52538
-2.5353
-2.54674
-2.55866
-2.57001
-2.58023
-2.58996
-2.5996
-2.57898
-2.57995
-2.58159
-2.58398
-2.58702
-2.59072
-2.59506
-2.59989
-2.60515
-2.61086
-2.6171
-2.62384
-2.63078
-2.63776
-2.6451
-2.65312
-2.66228
-2.67269
-2.68336
-2.69357
-2.70301
-2.71177
-2.71989
-2.71129
-2.71221
-2.71375
-2.71598
-2.71881
-2.72222
-2.72618
-2.73061
-2.73546
-2.74072
-2.74639
-2.75245
-2.75877
-2.76534
-2.77227
-2.77977
-2.78804
-2.79707
-2.80645
-2.81577
-2.82487
-2.8332
-2.84057
-2.84296
-2.84384
-2.84529
-2.84738
-2.85002
-2.85317
-2.85681
-2.86088
-2.86534
-2.87016
-2.87534
-2.88084
-2.88662
-2.89269
-2.89912
-2.90598
-2.91337
-2.92123
-2.92939
-2.9376
-2.94569
-2.95347
-2.96063
-2.97407
-2.97492
-2.97629
-2.97825
-2.98071
-2.98364
-2.98699
-2.99073
-2.99483
-2.99925
-3.00397
-3.00899
-3.01428
-3.01984
-3.02572
-3.03195
-3.03855
-3.04548
-3.05263
-3.05986
-3.06705
-3.07404
-3.0807
-3.10469
-3.1055
-3.10681
-3.10866
-3.11096
-3.11368
-3.11677
-3.12021
-3.12396
-3.128
-3.13231
-3.13689
-3.14171
-3.14679
-3.15214
-3.15777
-3.16367
-3.16981
-3.17612
-3.1825
-3.18886
-3.1951
-3.20108
-3.23489
-3.23567
-3.23692
-3.23866
-3.24082
-3.24335
-3.2462
-3.24936
-3.25278
-3.25646
-3.26039
-3.26454
-3.26893
-3.27354
-3.27839
-3.28346
-3.28875
-3.29421
-3.2998
-3.30544
-3.31106
-3.31657
-3.32182
-3.36473
-3.36549
-3.36668
-3.36834
-3.37036
-3.3727
-3.37533
-3.37821
-3.38132
-3.38466
-3.38822
-3.39198
-3.39595
-3.40012
-3.4045
-3.40906
-3.41379
-3.41866
-3.42362
-3.42862
-3.43358
-3.43845
-3.44305
-3.49429
-3.49503
-3.49617
-3.49773
-3.49962
-3.50178
-3.50419
-3.5068
-3.50962
-3.51263
-3.51583
-3.51922
-3.5228
-3.52656
-3.53049
-3.53459
-3.53882
-3.54316
-3.54757
-3.552
-3.55639
-3.56068
-3.56472
-3.62363
-3.62434
-3.62543
-3.6269
-3.62866
-3.63064
-3.63282
-3.63517
-3.63769
-3.64039
-3.64326
-3.6463
-3.64951
-3.65288
-3.6564
-3.66006
-3.66384
-3.66771
-3.67163
-3.67555
-3.67943
-3.68322
-3.68677
-3.7528
-3.75348
-3.75451
-3.75588
-3.7575
-3.7593
-3.76125
-3.76334
-3.76558
-3.76797
-3.77052
-3.77323
-3.77609
-3.77909
-3.78224
-3.7855
-3.78887
-3.79231
-3.79578
-3.79926
-3.80269
-3.80603
-3.80916
-3.88183
-3.88248
-3.88344
-3.88471
-3.88619
-3.88779
-3.88951
-3.89134
-3.8933
-3.8954
-3.89764
-3.90003
-3.90256
-3.90523
-3.90802
-3.91092
-3.91391
-3.91696
-3.92004
-3.92311
-3.92614
-3.92908
-3.93184
-4.01071
-4.01135
-4.01225
-4.01341
-4.01473
-4.01613
-4.01761
-4.01918
-4.02087
-4.02268
-4.02463
-4.02673
-4.02896
-4.03131
-4.03377
-4.03633
-4.03897
-4.04166
-4.04438
-4.04709
-4.04976
-4.05235
-4.05477
-4.13945
-4.14009
-4.14094
-4.142
-4.14315
-4.14434
-4.14557
-4.14688
-4.1483
-4.14984
-4.15152
-4.15333
-4.15527
-4.15733
-4.15949
-4.16174
-4.16406
-4.16642
-4.16881
-4.1712
-4.17355
-4.17582
-4.17794
-4.26811
-4.26872
-4.26953
-4.27048
-4.27148
-4.27244
-4.27341
-4.27446
-4.2756
-4.27688
-4.27829
-4.27985
-4.28152
-4.28331
-4.28519
-4.28715
-4.28917
-4.29124
-4.29333
-4.29542
-4.29747
-4.29946
-4.30132
-4.39663
-4.3972
-4.39796
-4.39885
-4.39972
-4.40047
-4.40115
-4.40191
-4.40278
-4.4038
-4.40497
-4.40628
-4.40771
-4.40925
-4.41087
-4.41256
-4.41432
-4.41611
-4.41792
-4.41974
-4.42153
-4.42326
-4.42488
-4.52496
-4.52549
-4.52622
-4.52705
-4.5278
-4.52833
-4.52875
-4.52921
-4.52982
-4.53059
-4.53153
-4.53262
-4.53383
-4.53514
-4.53653
-4.53798
-4.53949
-4.54103
-4.54259
-4.54416
-4.5457
-4.54721
-4.54861
-4.653
-4.65351
-4.65419
-4.65498
-4.6556
-4.65594
-4.6561
-4.6563
-4.65668
-4.65725
-4.65799
-4.65889
-4.6599
-4.661
-4.66218
-4.66341
-4.66468
-4.66599
-4.66732
-4.66866
-4.66998
-4.67128
-4.67248
-4.78066
-4.78114
-4.78178
-4.78251
-4.78299
-4.78316
-4.78313
-4.78316
-4.78337
-4.78376
-4.78434
-4.78507
-4.7859
-4.78682
-4.7878
-4.78883
-4.7899
-4.79099
-4.79211
-4.79324
-4.79436
-4.79546
-4.79648
-4.90791
-4.90831
-4.90891
-4.90956
-4.90991
-4.91
-4.90986
-4.90979
-4.90988
-4.91016
-4.91061
-4.91119
-4.91186
-4.91261
-4.91342
-4.91426
-4.91513
-4.91603
-4.91695
-4.91788
-4.91881
-4.91973
-4.92059
-5.03477
-5.03509
-5.03561
-5.03612
-5.03642
-5.03647
-5.03633
-5.03622
-5.03625
-5.03646
-5.0368
-5.03726
-5.03779
-5.03838
-5.03902
-5.03968
-5.04038
-5.04109
-5.04183
-5.04258
-5.04333
-5.04409
-5.0448
-5.16133
-5.16155
-5.16195
-5.16233
-5.16259
-5.16265
-5.16257
-5.1625
-5.16253
-5.1627
-5.16297
-5.16331
-5.16371
-5.16415
-5.16462
-5.16512
-5.16564
-5.16618
-5.16674
-5.16732
-5.16792
-5.16851
-5.16908
-5.28768
-5.28781
-5.28807
-5.28832
-5.28854
-5.28867
-5.28869
-5.28871
-5.28877
-5.28893
-5.28914
-5.28938
-5.28964
-5.28994
-5.29025
-5.29058
-5.29093
-5.2913
-5.29169
-5.29211
-5.29255
-5.293
-5.29343
-5.41392
-5.41398
-5.41408
-5.41422
-5.41443
-5.41463
-5.41478
-5.41491
-5.41504
-5.41518
-5.41532
-5.41547
-5.41561
-5.41576
-5.41591
-5.41607
-5.41625
-5.41646
-5.41668
-5.41694
-5.41723
-5.41754
-5.41785
-5.54015
-5.54015
-5.5401
-5.54011
-5.54035
-5.54066
-5.54093
-5.54116
-5.54133
-5.54146
-5.54155
-5.5416
-5.54162
-5.54162
-5.54162
-5.54161
-5.54162
-5.54165
-5.54171
-5.5418
-5.54194
-5.54212
-5.54231
-5.66642
-5.6664
-5.66626
-5.66614
-5.66648
-5.6669
-5.66728
-5.66758
-5.66778
-5.66788
-5.66789
-5.66783
-5.66772
-5.66758
-5.66741
-5.66723
-5.66706
-5.66691
-5.66678
-5.6667
-5.66667
-5.66671
-5.66676
666.49
658.403
649.721
638.868
539.261
532.093
525.757
519.972
411.95
407.694
405.303
406.561
316.136
317.331
321.17
325.66
251.803
254.785
258.089
261.669
191.132
195.134
198.819
201.88
127.959
132.18
136.342
140.233
64.8738
68.8806
73.047
77.1267
17.2374
19.6054
21.6882
23.4792
-1.49424
-1.28714
-0.843798
-0.388261
-1.98013
-2.0001
-2.00822
-2.02134
-2.06858
-2.09156
-2.11933
-2.1369
-2.13515
-2.14931
-2.16848
-2.18956
-2.24781
-2.25316
-2.26214
-2.27677
-2.37359
-2.38202
-2.39165
-2.40248
-2.48986
-2.49663
-2.50459
-2.51417
-2.60808
-2.61404
-2.62055
-2.62787
-2.72678
-2.73171
-2.73707
-2.74277
-2.84618
-2.85021
-2.85451
-2.85888
-2.96582
-2.96933
-2.97285
-2.97628
-3.08562
-3.08887
-3.09198
-3.0948
-3.20553
-3.20846
-3.21126
-3.21387
-3.32573
-3.32829
-3.33075
-3.33307
-3.44645
-3.44865
-3.45077
-3.45281
-3.56768
-3.56958
-3.5714
-3.57317
-3.68935
-3.691
-3.69257
-3.6941
-3.81141
-3.81285
-3.81421
-3.81554
-3.93381
-3.93506
-3.93625
-3.9374
-4.0565
-4.05759
-4.05863
-4.05963
-4.17945
-4.1804
-4.18131
-4.18219
-4.30264
-4.30347
-4.30426
-4.30503
-4.42603
-4.42675
-4.42744
-4.42811
-4.5496
-4.55023
-4.55082
-4.5514
-4.67334
-4.67387
-4.67438
-4.67489
-4.79721
-4.79767
-4.7981
-4.79853
-4.9212
-4.92159
-4.92195
-4.92231
-5.0453
-5.04562
-5.04591
-5.04621
-5.16948
-5.16974
-5.16997
-5.17021
-5.29374
-5.29394
-5.29412
-5.29429
-5.41806
-5.4182
-5.41833
-5.41845
-5.54243
-5.5425
-5.54256
-5.54261
-5.66682
-5.66686
-5.6669
-5.66693
613.533
618.383
623.052
633.437
648.422
660.036
658.336
649.857
637.557
626.599
617.511
615.183
614.654
612.098
614.622
619.562
624.097
620.445
622.933
508.251
498.633
500.29
510.191
525.374
534.357
534.162
527.309
522.354
513.127
509.3
507.649
504.289
497.653
494.56
499.288
501.643
501.176
506.776
409.199
408.772
415.369
421.923
426.193
427.906
429.213
427.981
426.73
421.692
418.042
414.368
409.858
404.389
397.173
394.404
391.543
388.901
391.783
332.817
341.439
347.703
349.726
348.606
347.909
347.266
348.512
346.928
343.051
339.696
335.25
330.973
324.755
318.747
313.167
308.343
305.276
304.7
268.778
281.73
287.295
285.392
281.815
279.389
275.573
274.179
272.773
270.444
268.029
264.44
259.844
253.443
248.787
244.402
239.458
236.301
234.59
207.432
220.499
226.819
225.232
220.205
215.913
211.866
208.055
205.928
204.56
200.587
196.231
191.503
186.055
181.941
178.878
174.535
169.461
167.272
146.639
159.217
166.979
165.967
161.283
156.815
152.564
148.023
144.75
141.008
135.351
129.638
123.906
118.63
114.714
110.91
104.505
98.784
98.2877
84.287
96.286
105.623
106.031
101.565
96.5611
90.4869
81.6979
76.9177
73.01
67.6551
61.4486
55.4568
50.8385
47.6936
44.4646
39.1318
35.5087
35.4282
28.1765
37.1768
44.749
48.7785
46.8367
42.9452
34.8883
22.7586
20.7361
19.5415
17.1237
13.8108
10.7555
8.58562
7.21716
6.30901
5.81168
5.28136
4.23359
1.48134
5.2937
7.89292
9.19283
10.1652
9.865
4.61898
0.496594
0.322167
0.343423
0.167407
-0.185024
-0.570971
-0.859353
-1.05542
-1.0997
-1.01983
-0.934157
-0.848557
-2.0833
-2.04452
-1.76167
-0.958405
-0.0465518
-0.844665
-1.44514
-1.44096
-1.4656
-1.49269
-1.49691
-1.50586
-1.52015
-1.52425
-1.51709
-1.52168
-1.53859
-1.51333
-1.46009
-2.15063
-2.22751
-2.31788
-2.3565
-2.43698
-2.5411
-2.27708
-1.85759
-1.72845
-1.68202
-1.66781
-1.6732
-1.68304
-1.68847
-1.68944
-1.69318
-1.69052
-1.66755
-1.64132
-2.22346
-2.29426
-2.37939
-2.44894
-2.50429
-2.4845
-2.31221
-2.08666
-1.96761
-1.90018
-1.87501
-1.86961
-1.87546
-1.8787
-1.87731
-1.87232
-1.85791
-1.83012
-1.80321
-2.31315
-2.3721
-2.43192
-2.484
-2.516
-2.48355
-2.36731
-2.24422
-2.15744
-2.10467
-2.07933
-2.0734
-2.07132
-2.06171
-2.04728
-2.02984
-2.01184
-1.99111
-1.96808
-2.42296
-2.46121
-2.50311
-2.53509
-2.54359
-2.51726
-2.44977
-2.3705
-2.31148
-2.27237
-2.25536
-2.25355
-2.24611
-2.22771
-2.20349
-2.18027
-2.16215
-2.14809
-2.13387
-2.53114
-2.55781
-2.5864
-2.60361
-2.60084
-2.57681
-2.5356
-2.48852
-2.44877
-2.42031
-2.40671
-2.40276
-2.3932
-2.3745
-2.35236
-2.33092
-2.3134
-2.29959
-2.29438
-2.64068
-2.66019
-2.68056
-2.68992
-2.68255
-2.66068
-2.63346
-2.60461
-2.57855
-2.55788
-2.54419
-2.53603
-2.52335
-2.5067
-2.4907
-2.47655
-2.46253
-2.44835
-2.44777
-2.75239
-2.76659
-2.78043
-2.78613
-2.77872
-2.76176
-2.74202
-2.72315
-2.70631
-2.69178
-2.67927
-2.66795
-2.65397
-2.63833
-2.62511
-2.61471
-2.60506
-2.59821
-2.59628
-2.8661
-2.87624
-2.88524
-2.88867
-2.8835
-2.87119
-2.85726
-2.84401
-2.8323
-2.82181
-2.81214
-2.80127
-2.78703
-2.77252
-2.76002
-2.75063
-2.74375
-2.74228
-2.73874
-2.98186
-2.98914
-2.995
-2.99728
-2.99422
-2.98628
-2.97607
-2.96593
-2.95702
-2.94909
-2.941
-2.93199
-2.92008
-2.90788
-2.89634
-2.88675
-2.88038
-2.88142
-2.87671
-3.09937
-3.10478
-3.10866
-3.11002
-3.10812
-3.10317
-3.09613
-3.08838
-3.08084
-3.07418
-3.06784
-3.06092
-3.05267
-3.04298
-3.03302
-3.02333
-3.01681
-3.01604
-3.01208
-3.21787
-3.22204
-3.22481
-3.22576
-3.22448
-3.22101
-3.21599
-3.21003
-3.2039
-3.19826
-3.19323
-3.18831
-3.18312
-3.17621
-3.16753
-3.15913
-3.15305
-3.14885
-3.14597
-3.33668
-3.34017
-3.34241
-3.34321
-3.34235
-3.33992
-3.33617
-3.33161
-3.32679
-3.32217
-3.31786
-3.3138
-3.31001
-3.30517
-3.29783
-3.29172
-3.28654
-3.28186
-3.27846
-3.45598
-3.45896
-3.46089
-3.46164
-3.46112
-3.45939
-3.45662
-3.45319
-3.44947
-3.44577
-3.44221
-3.43872
-3.43518
-3.4309
-3.42507
-3.4201
-3.41691
-3.41279
-3.40908
-3.57591
-3.57847
-3.58014
-3.58086
-3.58058
-3.57935
-3.57732
-3.57474
-3.57192
-3.56902
-3.56609
-3.56313
-3.55992
-3.55602
-3.55115
-3.54665
-3.54397
-3.54079
-3.53769
-3.69646
-3.69869
-3.70016
-3.70084
-3.70073
-3.69987
-3.69838
-3.69644
-3.69427
-3.69197
-3.68958
-3.68701
-3.68411
-3.68061
-3.67645
-3.67249
-3.66972
-3.66723
-3.66493
-3.81758
-3.81954
-3.82085
-3.8215
-3.82151
-3.82092
-3.81982
-3.81835
-3.81665
-3.8148
-3.81279
-3.81053
-3.80792
-3.80487
-3.80133
-3.79803
-3.79547
-3.7934
-3.79154
-3.93918
-3.94091
-3.94209
-3.94271
-3.94281
-3.94242
-3.94161
-3.94048
-3.93912
-3.93759
-3.93589
-3.93392
-3.93161
-3.92897
-3.92603
-3.92332
-3.92108
-3.9194
-3.91789
-4.06119
-4.06272
-4.06379
-4.06439
-4.06455
-4.0643
-4.0637
-4.06281
-4.06171
-4.06043
-4.05898
-4.05728
-4.05529
-4.05305
-4.05061
-4.0484
-4.04655
-4.04523
-4.044
-4.18356
-4.18492
-4.18588
-4.18645
-4.18665
-4.1865
-4.18605
-4.18535
-4.18444
-4.18337
-4.18212
-4.18068
-4.179
-4.17712
-4.17511
-4.17336
-4.17186
-4.17085
-4.16983
-4.30623
-4.30743
-4.3083
-4.30884
-4.30905
-4.30897
-4.30863
-4.30807
-4.30733
-4.30642
-4.30536
-4.30413
-4.30273
-4.30118
-4.29953
-4.29817
-4.29699
-4.29624
-4.29541
-4.42916
-4.43022
-4.43101
-4.4315
-4.43172
-4.43169
-4.43143
-4.43098
-4.43036
-4.42959
-4.42869
-4.42766
-4.4265
-4.42521
-4.42386
-4.42285
-4.42192
-4.42137
-4.42075
-4.55232
-4.55325
-4.55395
-4.5544
-4.55461
-4.55461
-4.55442
-4.55405
-4.55353
-4.55288
-4.55212
-4.55125
-4.5503
-4.54926
-4.54817
-4.54742
-4.54675
-4.54629
-4.54589
-4.67567
-4.67649
-4.6771
-4.6775
-4.6777
-4.67772
-4.67757
-4.67727
-4.67684
-4.6763
-4.67566
-4.67495
-4.67419
-4.6734
-4.67257
-4.67198
-4.67149
-4.67109
-4.67089
-4.7992
-4.7999
-4.80043
-4.80078
-4.80096
-4.80099
-4.80087
-4.80063
-4.80028
-4.79983
-4.79931
-4.79874
-4.79815
-4.7976
-4.79706
-4.79657
-4.79614
-4.7958
-4.7957
-4.92287
-4.92347
-4.92391
-4.92421
-4.92437
-4.9244
-4.92431
-4.92411
-4.92383
-4.92347
-4.92305
-4.9226
-4.92216
-4.92178
-4.92146
-4.9211
-4.92074
-4.92047
-4.92041
-5.04667
-5.04716
-5.04753
-5.04778
-5.04791
-5.04794
-5.04786
-5.04771
-5.04748
-5.0472
-5.04687
-5.04653
-5.04621
-5.04593
-5.04574
-5.04555
-5.04532
-5.04509
-5.045
-5.17058
-5.17097
-5.17126
-5.17146
-5.17156
-5.17158
-5.17152
-5.1714
-5.17122
-5.171
-5.17076
-5.17051
-5.17028
-5.17009
-5.16996
-5.16989
-5.16976
-5.16955
-5.16945
-5.29457
-5.29486
-5.29508
-5.29523
-5.2953
-5.29531
-5.29527
-5.29517
-5.29504
-5.29488
-5.29471
-5.29454
-5.29438
-5.29427
-5.29419
-5.29415
-5.29408
-5.29394
-5.29385
-5.41865
-5.41883
-5.41898
-5.41908
-5.41913
-5.41913
-5.41909
-5.41902
-5.41893
-5.41882
-5.4187
-5.4186
-5.41852
-5.41847
-5.41845
-5.41846
-5.41845
-5.41837
-5.4183
-5.54269
-5.54279
-5.54293
-5.543
-5.54303
-5.54303
-5.543
-5.54295
-5.54289
-5.54282
-5.54276
-5.54271
-5.54269
-5.54271
-5.54276
-5.54284
-5.54289
-5.54288
-5.54281
-5.66697
-5.66703
-5.66701
-5.66701
-5.66701
-5.66699
-5.66697
-5.66694
-5.66691
-5.66689
-5.66687
-5.66688
-5.66692
-5.66702
-5.66716
-5.66733
-5.66742
-5.66744
-5.66739
)
;

boundaryField
{
    leftWall
    {
        type            calculated;
        value           nonuniform List<scalar> 
50
(
4885.79
4085.09
3279.71
2468.87
1652.37
1025.39
781.875
719.615
623.257
492.497
361.821
237.424
143.82
75.7478
19.6298
-1.10176
-1.3442
-1.48574
-1.62676
-1.76638
-1.90462
-2.04156
-2.17736
-2.31212
-2.44595
-2.57898
-2.71129
-2.84296
-2.97407
-3.10469
-3.23489
-3.36473
-3.49429
-3.62363
-3.7528
-3.88183
-4.01071
-4.13945
-4.26811
-4.39663
-4.52496
-4.653
-4.78066
-4.90791
-5.03477
-5.16133
-5.28768
-5.41392
-5.54015
-5.66642
)
;
    }
    rightWall
    {
        type            calculated;
        value           nonuniform List<scalar> 
50
(
3268.25
2513.89
1821.19
1313.13
983.375
800.992
751.628
704.76
622.933
506.776
391.783
304.7
234.59
167.272
98.2877
35.4282
4.23359
-0.848557
-1.46009
-1.64132
-1.80321
-1.96808
-2.13387
-2.29438
-2.44777
-2.59628
-2.73874
-2.87671
-3.01208
-3.14597
-3.27846
-3.40908
-3.53769
-3.66493
-3.79154
-3.91789
-4.044
-4.16983
-4.29541
-4.42075
-4.54589
-4.67089
-4.7957
-4.92041
-5.045
-5.16945
-5.29385
-5.4183
-5.54281
-5.66739
)
;
    }
    lowerWall
    {
        type            calculated;
        value           nonuniform List<scalar> 
62
(
5283.94
5302.5
5338.83
5391.15
5457.3
5534.52
5618.45
5702.53
5778.52
5838.48
5877.38
5894.27
5890.99
5870.43
5837.06
5795.65
5750.35
5705.25
5664.29
5629.4
5601.77
5582.53
5572.31
5174.18
4373.19
3568.5
2759.85
1948.25
1222.88
857.321
780.979
728.432
721.016
712.33
701.663
2295.66
1564.41
1104.07
965.764
907.52
848.616
779.499
686.925
2677.81
2674.24
2711.86
2745.78
2778.16
2818.61
2880.89
2963.52
3058.29
3127.3
3168.41
3174.23
3173.46
3176.04
3221.57
3313.18
3439.45
3568.87
3651.52
)
;
    }
    atmosphere
    {
        type            calculated;
        value           nonuniform List<scalar> 
46
(
-5.7295
-5.72954
-5.72945
-5.72921
-5.72977
-5.73032
-5.73074
-5.73103
-5.73121
-5.73126
-5.73121
-5.73108
-5.73088
-5.73065
-5.73039
-5.73012
-5.72986
-5.7296
-5.72937
-5.72919
-5.72907
-5.72904
-5.72904
-5.72904
-5.72905
-5.72905
-5.72904
-5.72904
-5.72904
-5.72904
-5.72904
-5.72904
-5.72904
-5.72904
-5.72904
-5.72904
-5.72904
-5.72904
-5.72905
-5.72906
-5.72911
-5.72925
-5.72952
-5.72965
-5.72961
-5.72939
)
;
    }
    defaultFaces
    {
        type            empty;
    }
}


// ************************************************************************* //
