/*--------------------------------*- C++ -*----------------------------------*\
| =========                 |                                                 |
| \\      /  F ield         | OpenFOAM: The Open Source CFD Toolbox           |
|  \\    /   O peration     | Version:  2312                                  |
|   \\  /    A nd           | Website:  www.openfoam.com                      |
|    \\/     M anipulation  |                                                 |
\*---------------------------------------------------------------------------*/
FoamFile
{
    version     2.0;
    format      ascii;
    arch        "LSB;label=32;scalar=64";
    class       volScalarField;
    location    "3.95";
    object      p_rgh;
}
// * * * * * * * * * * * * * * * * * * * * * * * * * * * * * * * * * * * * * //

dimensions      [1 -1 -2 0 0 0 0];

internalField   nonuniform List<scalar> 
2268
(
5283.94
5302.5
5338.83
5391.15
5457.3
5534.52
5618.45
5702.53
5778.52
5838.48
5877.38
5894.27
5890.99
5870.43
5837.06
5795.65
5750.35
5705.25
5664.29
5629.4
5601.77
5582.53
5572.31
5279.54
5297.85
5334.48
5387.22
5453.98
5532.23
5617.72
5703.79
5781.73
5842.94
5882.17
5898.77
5894.62
5872.88
5838.23
5795.66
5749.3
5703.16
5661.58
5626.28
5598.3
5578.37
5567.6
5270.46
5288.65
5325.78
5379.3
5447.15
5527.31
5615.87
5705.98
5787.96
5851.86
5891.79
5907.71
5901.82
5877.76
5840.54
5795.7
5747.27
5699.04
5656.31
5620.21
5591.62
5570.64
5559.24
5255.91
5274.63
5312.82
5367.59
5436.9
5519.75
5612.76
5708.95
5797.23
5865.34
5906.25
5921.01
5912.89
5885.43
5844.32
5796.08
5744.53
5692.86
5648.45
5611.04
5581.53
5559.26
5546.8
5223.62
5243.24
5286.79
5348.96
5422.1
5508.58
5607.39
5711.93
5809.42
5883.8
5926.02
5939.14
5928.1
5896.17
5849.73
5796.77
5741.03
5684.11
5637.77
5598.33
5567.55
5542.31
5517.45
3320.91
3440.21
3661.69
3958.45
4316.81
4722.36
5141.46
5526.58
5809.39
5906.43
5948.93
5961.82
5948.04
5902.13
5817.99
5698.1
5547
5341.81
5156.91
4977.6
4856.03
4737.15
4619.7
1174.74
1183.56
1209.33
1267.02
1376.93
1585.2
1946.53
2492.03
3177.69
3882.83
4229.19
4255.88
4080.07
3764.49
3301.73
2868.44
2487.06
2114.56
1920.59
1766.01
1614.83
1549.69
1519.98
1160.92
1160.24
1158.81
1156.37
1151.86
1145.88
1138.1
1130.07
1123.12
1145.37
1191.57
1209.64
1200.74
1132.48
1140.96
1151.82
1161.67
1169.25
1170.97
1163.96
1172.65
1192.55
1216.27
2677.81
2674.24
2711.86
2745.78
2778.16
2818.61
2880.89
2963.52
3058.29
3127.3
3168.41
3174.23
3173.46
3176.04
3221.57
3313.18
3439.45
3568.87
3651.52
2607.15
2595.12
2643.99
2688.14
2721.34
2764.6
2854.22
2965.58
3060.36
3133.53
3175.5
3179.76
3176.28
3170.77
3209.94
3306.85
3439.83
3576.7
3664.31
1665.5
1570.74
1576.75
1659.63
1766.02
1903.99
2071.01
2291.14
2561.12
2738.67
2739.33
2712.76
2736.03
2713.54
2756.21
2870.66
3087.89
3369.3
3501.25
1139.6
1193.9
1251.47
1255.82
1238.4
1209.82
1171.14
1180.27
1267.83
1481.27
1814.88
1816.25
1643.45
1573.58
1648.02
2001.63
2407.66
2593.43
2684.23
1131.92
1196.07
1263.63
1265.42
1252.15
1229.62
1191.13
1173.88
1171.05
1203.15
1132.05
1080.57
1110.25
1148.3
1144.92
1128.93
1306.82
1871.36
2506.13
1138.75
1305.51
1361.55
1293.16
1258.42
1249.63
1240.74
1215.87
1200.74
1177.58
1155.09
1129.83
1124.42
1136.42
1148.83
1145.12
1131.96
1112.51
1110.87
1219.47
1403.22
1441.11
1433.27
1260.27
1210.52
1206.66
1196.17
1187.99
1167.66
1142.29
1128.37
1100.97
1146.6
1163.04
1154.29
1139.09
1125.02
1063.55
1161.02
1268.83
1441.87
1448.2
1290.13
1197.74
1188.36
1178.09
1177.89
1078.82
1085.68
1081.69
1104.87
1187.37
1186.48
1150.56
1131.65
1134.23
1061.06
1156.56
1155.99
1154.87
1152.82
1148.95
1143.66
1137.31
1131
1125.5
1121.3
1120.01
1123.51
1125.37
1129.83
1139.87
1149.12
1162.61
1174.29
1185.13
1192.14
1177.3
1182.42
1185.92
1151.45
1150.72
1150.38
1148.44
1145.49
1141.51
1137.03
1132.6
1128.99
1127.04
1127.6
1130.51
1136.01
1146.89
1164.06
1166.22
1165.59
1177.53
1189.7
1192.9
1199.55
1202.35
1205.57
1142.61
1146.72
1144.14
1143.76
1140
1133.72
1128.36
1119.79
1112.86
1111.63
1117.09
1125.78
1128.07
1147.92
1157.78
1163.15
1156.41
1162.04
1148.91
1153.61
1169.54
1172.38
1175.81
1035.06
1076.43
1094.41
1082.1
1024.79
982.977
959.352
953.423
947.155
937.762
923.677
896.358
875.092
867.534
859.091
882.928
881.524
897.888
861.671
861.044
883.024
879.847
872.865
702.729
734.701
748.315
740.804
718.55
707.797
689.56
667.348
654.912
642.796
652.121
676.211
700.661
703.305
696.041
673.619
698.427
735.909
782.464
764.222
758.257
765.104
766.45
640.237
655.546
659.766
663.04
667.545
671.024
674.812
675.962
679.567
683.198
687.415
692.828
699.095
706.435
714.135
714.7
714.979
733.781
741.211
747.082
753.787
762.088
769.226
440.732
421.059
431.11
463.11
495.037
521.239
545.984
571.673
597.777
624.287
650.175
674.081
692.973
708.15
717.632
723.244
729.244
734.673
738.62
743.121
749.708
759.392
769.958
2.23974
3.85273
7.42349
11.9843
21.9741
34.538
50.1986
70.2658
93.2721
130.252
174.954
228.475
289.251
353.297
435.847
565.555
662.064
682.183
659.348
658.761
716.259
751.072
765.663
0.190839
0.185833
0.174655
0.168418
0.161174
0.162546
0.175162
0.299859
1.43012
2.16151
3.23697
8.27605
15.6106
22.4756
32.2452
27.3113
55.7921
100.395
130.174
151.26
223.585
315.885
393.696
0.174542
0.171781
0.165604
0.159771
0.154619
0.14962
0.146387
0.144514
0.136643
0.13517
0.123907
0.118259
0.113475
0.0719639
0.0714897
0.0774798
0.561752
5.20322
7.67159
14.6363
9.7287
6.25658
6.0321
0.158768
0.156842
0.153581
0.150855
0.146299
0.141877
0.135441
0.135239
0.130232
0.125661
0.120746
0.109748
0.130134
0.135275
0.114724
0.0777548
0.00725341
0.0614682
0.829349
0.997892
0.808489
0.298167
0.0721675
0.144335
0.142816
0.140586
0.139455
0.137352
0.136709
0.136747
0.15609
0.128294
0.11119
0.125949
0.165853
0.150965
0.135425
0.117601
0.0608449
0.0288115
-0.0048049
-0.0342554
-0.059684
-0.0498013
-0.0228534
-0.101223
0.131274
0.129947
0.127813
0.126163
0.126541
0.135084
0.181867
0.188304
0.148997
0.0999168
0.0967401
0.0945327
0.0677429
0.0517502
0.0412533
0.0306812
0.0160752
-0.00614701
-0.0302155
-0.0533891
-0.0627561
-0.0706211
-0.078956
0.119519
0.118315
0.116513
0.114899
0.114083
0.128418
0.185279
0.181228
0.171644
0.146902
0.158005
0.139169
0.0815941
0.0496834
0.0385799
0.0289168
0.0286399
0.0168967
-0.0219138
-0.0478836
-0.0459264
-0.0464881
-0.0654334
0.108913
0.107806
0.10612
0.103938
0.100018
0.100739
0.124863
0.149824
0.152074
0.170636
0.172817
0.182308
0.143479
0.0906639
0.070227
0.044732
0.0607288
0.0684067
0.0351881
-0.0305689
-0.0515955
-0.0664379
-0.0754507
0.0993496
0.0982965
0.0965995
0.0940176
0.0905102
0.0861499
0.0811509
0.0756319
0.0707946
0.0779203
0.110444
0.147547
0.137079
0.112511
0.0804867
0.0682819
0.0675774
0.0924138
0.0797874
0.0395141
-0.0121583
-0.0375223
-0.0664654
0.0907064
0.0896874
0.0880207
0.0855115
0.0822605
0.0781762
0.0733977
0.0680531
0.0625357
0.0565328
0.0502007
0.0560076
0.069706
0.0594804
0.0449188
0.0240372
0.0238723
0.0703593
0.100922
0.0980156
0.0673674
0.0585142
-0.0297889
0.0828774
0.0818893
0.0802888
0.0779242
0.0748976
0.071179
0.0668296
0.0620238
0.0569165
0.0513731
0.0451148
0.0379646
0.0310456
0.0242532
0.0171153
0.00926197
0.00104167
-0.00162946
0.003189
0.0106527
0.0554664
0.0605284
0.00416515
0.075772
0.0748066
0.0732909
0.0710714
0.0682556
0.0648465
0.0608766
0.0564642
0.0516666
0.0463803
0.0406466
0.0345531
0.0282291
0.0216817
0.0148685
0.00727116
-0.00103597
-0.0100686
-0.019451
-0.0287714
-0.0369876
-0.0237858
-0.0282931
0.0692989
0.0683567
0.0669218
0.0648399
0.0622146
0.0590626
0.0554221
0.0513497
0.0468755
0.0420487
0.0368563
0.0313567
0.0255744
0.0195023
0.0130744
0.00622603
-0.00116264
-0.00902837
-0.0171769
-0.0253832
-0.033465
-0.04118
-0.0477941
0.0633893
0.0624662
0.0611024
0.059145
0.0566886
0.053762
0.0504066
0.0466556
0.0425621
0.0381388
0.0334101
0.0283932
0.0231027
0.0175342
0.0116555
0.00542801
-0.00116825
-0.00809301
-0.0152355
-0.0224466
-0.0295814
-0.036543
-0.0431612
0.0579702
0.0570665
0.0557651
0.053916
0.0516152
0.0488943
0.0457927
0.0423535
0.0386016
0.0345612
0.0302488
0.0256765
0.0208521
0.0157715
0.0104221
0.00479332
-0.0011086
-0.00724693
-0.0135527
-0.0199302
-0.0262777
-0.0325007
-0.038469
0.0529765
0.0520878
0.0508434
0.049094
0.0469359
0.0444071
0.0415504
0.038396
0.0349695
0.0312877
0.0273642
0.0232078
0.0188228
0.0142085
0.00936272
0.00428882
-0.000996679
-0.00645896
-0.0120448
-0.0176831
-0.0232995
-0.0288153
-0.0340571
0.048335
0.0474586
0.0462667
0.0446117
0.0425906
0.0402463
0.0376195
0.0347382
0.0316213
0.0282812
0.0247262
0.0209623
0.0169926
0.012819
0.00844541
0.00388195
-0.000850673
-0.0057195
-0.0106797
-0.0156727
-0.0206368
-0.0254995
-0.0301026
0.0439828
0.0431148
0.0419736
0.0404097
0.0385216
0.0363567
0.0339549
0.0313394
0.0285221
0.0255092
0.0223048
0.0189123
0.0153347
0.0115756
0.00764221
0.00354791
-0.000685253
-0.00502617
-0.00943489
-0.0138609
-0.0182501
-0.0225387
-0.0265787
0.0398536
0.0389981
0.0379084
0.036436
0.034682
0.0326979
0.0305201
0.0281665
0.025641
0.022943
0.0200729
0.0170322
0.013824
0.0104533
0.00692915
0.00326631
-0.000513056
-0.00437953
-0.00829692
-0.0122203
-0.0161015
-0.019883
-0.0234389
0.0358994
0.0350554
0.0340244
0.032649
0.0310344
0.0292371
0.0272847
0.0251917
0.0229513
0.020557
0.0180058
0.0152983
0.0124376
0.00943013
0.00628587
0.00302028
-0.000345026
-0.00378244
-0.00725886
-0.0107344
-0.0141657
-0.0175017
-0.020629
0.0320777
0.0312507
0.0302873
0.0290158
0.0275492
0.0259501
0.024227
0.0223913
0.0204303
0.018329
0.016082
0.0136893
0.0111552
0.00848681
0.0056952
0.00279581
-0.000190555
-0.00323803
-0.00631651
-0.00939048
-0.0124212
-0.0153625
-0.0181165
0.0284374
0.0275762
0.0266781
0.0255222
0.0242385
0.0228215
0.0213313
0.0197477
0.0180593
0.0162409
0.0142833
0.0121877
0.00995956
0.00760745
0.00514309
0.00258176
-5.68464e-05
-0.00274877
-0.00546651
-0.00817839
-0.01085
-0.0134404
-0.0158594
0.0249075
0.0240394
0.0233325
0.0229023
0.0217092
0.0198619
0.0185848
0.0172439
0.0158236
0.0142792
0.0125967
0.0107804
0.00883795
0.00677989
0.0046189
0.00236987
5.11595e-05
-0.00231526
-0.00470449
-0.00708845
-0.00943667
-0.0117112
-0.0138339
0.0215275
0.0206048
0.0204411
0.0208998
0.0203698
0.0202337
0.0182738
0.0149683
0.0137129
0.0124356
0.0110148
0.00945973
0.00778235
0.00599624
0.00411556
0.0021548
0.000130705
-0.00193709
-0.0040263
-0.00611224
-0.00816817
-0.0101599
-0.0120148
0.018243
0.0173268
0.0176212
0.0185021
0.0189415
0.0194336
0.0183265
0.0131892
0.0117308
0.0107098
0.00953597
0.00822293
0.0067893
0.00525274
0.0036296
0.0019342
0.00018133
-0.00161198
-0.00342643
-0.0052407
-0.00703126
-0.00876686
-0.010385
0.0151704
0.0142835
0.0149774
0.0158963
0.0165602
0.0168486
0.0160854
0.0110934
0.00989209
0.00911194
0.0081632
0.00707053
0.00585833
0.00454871
0.00316053
0.00170826
0.000204703
-0.00133629
-0.00289857
-0.00446393
-0.00601225
-0.00751652
-0.00891848
0.0123309
0.0115124
0.0124077
0.0130898
0.0128084
0.0135619
0.0109444
0.00867875
0.00823116
0.00765104
0.00689938
0.00600243
0.00498891
0.00388433
0.00270942
0.00147899
0.000204079
-0.00110478
-0.00243499
-0.00377176
-0.00509815
-0.0063897
-0.00759746
0.0101098
0.00918663
0.0100988
0.00999248
0.00777727
0.00724353
0.00737241
0.00703926
0.0067481
0.00632637
0.00574045
0.0050136
0.00417716
0.00325789
0.00227684
0.00124876
0.000183454
-0.000911726
-0.00202811
-0.00315425
-0.00427645
-0.00537418
-0.00640234
0.00813443
0.00722714
0.00795493
0.00764062
0.00561836
0.00574882
0.00581297
0.00560221
0.00542381
0.00512474
0.00467196
0.00409127
0.00341328
0.0026633
0.00186052
0.00101854
0.000146147
-0.000751646
-0.00167019
-0.0026018
-0.00353538
-0.00445318
-0.00531886
0.00668386
0.00578206
0.00551748
0.00486566
0.00430605
0.00451828
0.00438872
0.00432446
0.0042347
0.00401939
0.00366879
0.00321415
0.00268049
0.00208854
0.00145343
0.000785944
9.33806e-05
-0.000620713
-0.00135496
-0.0021054
-0.00286353
-0.00361552
-0.00432793
0.00538358
0.0048603
0.00415423
0.00357996
0.00334993
0.00348659
0.00324287
0.00320542
0.0031448
0.00297075
0.00269692
0.00235379
0.00195569
0.00151565
0.00104287
0.000543748
2.2904e-05
-0.000517343
-0.00107748
-0.00165755
-0.0022517
-0.00284703
-0.00341783
0.00426725
0.00405024
0.00339345
0.00282257
0.00264234
0.00246025
0.00226935
0.00217941
0.00209387
0.00192753
0.0017219
0.00148194
0.00121456
0.000923812
0.000611995
0.000279994
-7.16016e-05
-0.000442844
-0.0008355
-0.00125237
-0.00169123
-0.00214047
-0.00257576
0.00306259
0.00306101
0.00251282
0.00219495
0.0019631
0.00157298
0.0013273
0.00116259
0.00102169
0.000877475
0.000729211
0.000584411
0.00044252
0.000297902
0.000145828
-1.85152e-05
-0.000199573
-0.000401402
-0.000628302
-0.000885381
-0.00117392
-0.00148273
-0.00179185
0.00167744
0.00189927
0.00157453
0.00151348
0.0011501
0.000691619
0.000346904
9.77165e-05
-8.46444e-05
-0.000215271
-0.000301872
-0.000350913
-0.000370232
-0.000372185
-0.000367025
-0.000364226
-0.000372641
-0.000400912
-0.000457786
-0.000552582
-0.000691946
-0.000867398
-0.00105823
0.000478805
0.00054042
0.000593674
0.000562365
4.09034e-05
-0.000437824
-0.000836213
-0.00113703
-0.00133602
-0.00143678
-0.00144832
-0.00139011
-0.00127881
-0.0011324
-0.000965608
-0.00079136
-0.000621286
-0.00046673
-0.000339785
-0.000255818
-0.00023205
-0.000263431
-0.000318538
1194.37
1192
1183.29
1174.02
1211.56
1207.36
1199.7
1180.57
1166.55
1145.66
1125.95
1099.83
865.202
828.851
754.843
770.279
769.122
767.314
769.602
790.129
773.151
775.6
778.704
781.416
777.034
780.245
779.639
782.882
778.677
781.213
780.226
782.292
472.692
540.982
593.731
633.504
11.1183
19.2186
31.582
48.1321
-0.0225625
-0.0892387
2.49018
4.44886
-0.154422
-0.158742
0.0564057
0.133749
-0.0985049
-0.104779
-0.0693038
-0.152089
-0.0860485
-0.0899003
-0.0957604
-0.113088
-0.0826796
-0.0889266
-0.098968
-0.112126
-0.077486
-0.0785115
-0.0858562
-0.0949911
-0.0713975
-0.0769208
-0.082619
-0.0898833
-0.0649011
-0.0697866
-0.0750437
-0.0806504
-0.0579568
-0.0628777
-0.0670333
-0.0711909
-0.0524794
-0.0559327
-0.0597937
-0.0633221
-0.0480935
-0.0512434
-0.0542655
-0.0570855
-0.0429262
-0.0458247
-0.0486208
-0.0512021
-0.0379592
-0.0405146
-0.0429675
-0.0452905
-0.0334959
-0.0356925
-0.0378112
-0.0398557
-0.0295351
-0.0314368
-0.0332604
-0.0350293
-0.0260184
-0.0276639
-0.0292393
-0.0307685
-0.0228846
-0.0243184
-0.025684
-0.0270082
-0.0200896
-0.021337
-0.0225244
-0.0236759
-0.0175867
-0.0186776
-0.0197121
-0.0207168
-0.0153433
-0.0162944
-0.0171989
-0.0180786
-0.0133326
-0.014164
-0.014953
-0.0157226
-0.0115307
-0.0122518
-0.0129389
-0.0136103
-0.00991092
-0.0105363
-0.0111299
-0.0117122
-0.00845012
-0.00898592
-0.00949719
-0.00999864
-0.00712901
-0.00758624
-0.00802029
-0.00844694
-0.00592878
-0.00631071
-0.00667539
-0.00703283
-0.00483073
-0.00514621
-0.0054448
-0.00573788
-0.00381978
-0.00407069
-0.00431016
-0.00454347
-0.00288324
-0.00307595
-0.00325746
-0.00343447
-0.00200796
-0.00214235
-0.00227141
-0.0023976
-0.00117785
-0.00125123
-0.00131315
-0.00136317
-0.000381351
-0.000419734
-0.000456284
-0.000487829
1151.37
1143.31
1288.15
1326.55
1201.08
1188.57
1184.27
1210.13
1134.72
1137.28
1087.06
1056.38
1075.62
1139.86
1154.66
1125.69
1130.78
1145.66
1100.14
1163.22
1068.28
915.058
1011.14
1154.29
1212.8
1173.27
1150.72
1039.34
1027.55
996.558
989.22
1006.06
996.092
1073.66
1144.09
1182.82
1198.66
1179.53
1015.92
825.092
812.078
908.759
1056.98
1062.72
1018.28
949.502
947.11
869.087
894.998
915.217
901.305
887.504
894.733
953.419
987.395
1017.73
1078.52
818.195
805.515
804.749
888.587
933.948
882.018
929.508
920.337
910.086
854.252
835.669
815.8
815.79
835.432
812.314
823.354
854.454
845.707
873.034
822.365
830.278
815.833
821.459
880.417
875.639
863.467
899.281
882.473
798.793
802.307
799.134
792.508
779.462
773.902
751.177
760.209
795.327
795.248
804.881
833.159
816.768
814.811
815.248
802.41
773.804
753.1
731.827
749.647
784.29
781.771
779.216
773.324
771.502
766.562
767.492
798.4
785.343
801.157
863.339
828.449
814.485
808.826
804.171
793.215
788.372
784.202
784.506
785.254
780.425
773.639
767.561
771.428
783.024
849.196
836.392
772.678
796
882.866
886.984
824.639
810.241
803.336
799.163
796.509
809.804
830.198
821.743
796.641
761.966
742.581
741.31
724.624
608.326
514.07
563.533
709.681
794.757
761.268
685.457
638.39
618.564
568.746
467.095
452.613
431.358
388.041
318.49
256.486
217.379
196.889
177.531
156.585
133.085
99.8515
105.604
203.422
271.478
252.618
199.804
185.283
78.7162
35.4661
42.6393
46.6279
42.6339
32.8007
22.1157
14.4225
8.1435
7.20939
11.1473
10.5615
6.90067
0.829604
1.38605
15.2638
39.6284
70.1524
54.9388
11.7156
0.513842
0.335032
0.320113
0.31276
0.294294
0.309079
0.312594
0.3065
0.301477
0.412004
0.524287
0.649626
0.157729
-0.120692
-0.35534
-0.438671
-0.52163
-0.550272
-0.250077
0.0677328
0.195841
0.241812
0.256061
0.253189
0.497249
0.855641
0.898281
0.882458
0.703063
0.62502
0.55099
-0.186978
-0.257376
-0.255296
-0.25968
-0.301739
-0.325057
-0.140921
0.0364069
0.105222
0.170217
0.195005
0.463284
0.862424
0.880529
0.809727
0.50199
0.351819
0.403794
0.399109
-0.15142
-0.180746
-0.0434045
-0.10008
-0.176612
-0.155356
-0.0509773
0.0758082
0.0991132
0.130269
0.170503
0.618671
0.714843
0.573164
0.242576
0.189836
0.183365
0.226867
0.350019
-0.135077
-0.114085
0.172098
0.13924
-0.0457151
-0.153197
-0.0984105
-0.0298059
0.0403077
0.0515632
0.104645
0.34313
0.42075
0.318968
0.261471
0.154814
0.166372
0.217903
0.40147
-0.112621
-0.113687
0.154949
0.179589
0.119624
-0.155286
-0.117545
-0.0690876
-0.0297668
0.0035688
0.0343159
0.0627888
0.0545239
0.0581186
0.0912102
0.229544
0.2589
0.191401
0.382692
-0.099951
-0.101102
-0.0179903
0.108691
0.112528
0.0674586
-0.0519341
-0.0284136
0.0251331
0.0694271
0.0862066
0.100444
0.0817352
0.0430592
0.0571689
0.128215
0.250446
0.397443
0.352668
-0.0898431
-0.0925091
-0.0981893
-0.099093
-0.00361151
0.0286296
0.0304354
0.0216531
0.0427788
0.076169
0.170312
0.203801
0.208005
0.155229
0.0509087
0.0792606
0.24054
0.497107
0.237091
-0.0784249
-0.0888762
-0.0981747
-0.100465
-0.0455965
-0.0019309
0.0146099
0.0204362
0.0239095
0.0597513
0.0953764
0.206682
0.228795
0.235471
0.0921328
0.0823997
0.267352
0.445125
0.082103
-0.0691448
-0.0765294
-0.0825658
-0.0849555
-0.0765818
-0.0265198
0.00917338
0.0158658
-0.00815468
0.0142733
0.0612379
0.104087
0.257353
0.257424
0.152396
0.163367
0.267019
0.282642
0.0582416
-0.0616866
-0.0670147
-0.0708921
-0.0723951
-0.0704176
-0.0645672
-0.0441201
-0.0366332
-0.0385109
-0.0357102
0.0154721
0.0854945
0.231716
0.240521
0.154383
0.195139
0.357356
0.100603
0.0340285
-0.0551675
-0.0592221
-0.061922
-0.0629745
-0.0617285
-0.0582866
-0.0523631
-0.0450967
-0.0381047
-0.0328231
-0.0283646
-0.0123258
0.0869506
0.169433
0.0750172
0.178358
0.262299
0.118388
0.0251931
-0.0488879
-0.0523357
-0.054534
-0.0553333
-0.0544489
-0.0518217
-0.0468075
-0.041174
-0.0358191
-0.0321692
-0.0297955
-0.0258934
-0.0188348
-0.0058968
0.000804912
0.0343815
0.202019
0.124188
0.0200674
-0.0430173
-0.0459858
-0.0478964
-0.0486205
-0.0480584
-0.0462208
-0.0430753
-0.0388167
-0.0349509
-0.0321411
-0.0290549
-0.025639
-0.0220936
-0.0175896
-0.00582368
-0.00706995
0.0973278
0.0653822
0.00915022
-0.0377606
-0.0403238
-0.0419835
-0.0426879
-0.0423898
-0.0411344
-0.0390976
-0.036414
-0.03362
-0.0306496
-0.0277592
-0.0248068
-0.021441
-0.016729
-0.0121808
-5.03294e-05
-0.00358564
0.000491844
0.00377232
-0.0331296
-0.0353565
-0.0368176
-0.0374969
-0.0373775
-0.0365041
-0.0350039
-0.033061
-0.0308643
-0.0284846
-0.026065
-0.0234472
-0.0203786
-0.015797
-0.0123915
0.0022264
-0.0040786
-0.00228728
-0.00031866
-0.0290558
-0.0310083
-0.0323157
-0.0329646
-0.0329712
-0.0323747
-0.0312692
-0.0297877
-0.0280665
-0.026174
-0.0241289
-0.0217783
-0.0190831
-0.0152416
-0.0123012
-0.00232461
-0.00504711
-0.00403117
-0.00177429
-0.0254611
-0.0271847
-0.0283629
-0.0289874
-0.0290834
-0.028688
-0.0278736
-0.026735
-0.0253643
-0.0238134
-0.0220684
-0.0200201
-0.0176401
-0.0148624
-0.0117514
-0.00770974
-0.00671544
-0.00440934
-0.00308923
-0.0222785
-0.0238065
-0.0248726
-0.025471
-0.0256277
-0.0253762
-0.0247723
-0.0238838
-0.0227741
-0.021481
-0.019993
-0.0182368
-0.0161746
-0.0139829
-0.0110227
-0.00898177
-0.00655036
-0.00491426
-0.00353209
-0.0194492
-0.0208061
-0.0217711
-0.0223404
-0.0225334
-0.0223836
-0.0219322
-0.021229
-0.0203193
-0.0192325
-0.0179674
-0.0164821
-0.0147461
-0.0128621
-0.010286
-0.00815719
-0.00641358
-0.0052421
-0.00248132
-0.016924
-0.0181276
-0.0189984
-0.0195327
-0.0197448
-0.0196654
-0.0193256
-0.0187627
-0.0180108
-0.0170939
-0.0160202
-0.0147749
-0.0133443
-0.011769
-0.00981082
-0.00742343
-0.00611021
-0.00560585
0.00346355
-0.0146611
-0.0157252
-0.0165064
-0.0170004
-0.0172183
-0.0171862
-0.016928
-0.0164731
-0.0158483
-0.0150744
-0.0141639
-0.0131113
-0.0118819
-0.0105835
-0.00897893
-0.00518959
-0.00387624
-0.00557127
0.00365789
-0.0126254
-0.0135607
-0.0142554
-0.0147056
-0.0149197
-0.0149161
-0.0147182
-0.0143474
-0.0138255
-0.0131716
-0.0123998
-0.0114873
-0.0102244
-0.00722974
-0.00236146
-0.00363789
0.00400162
-0.00169611
0.010399
-0.0107867
-0.0116016
-0.0122122
-0.0126148
-0.012816
-0.0128304
-0.0126775
-0.0123739
-0.0119373
-0.011385
-0.0107335
-0.00995319
-0.0087062
-0.00294607
0.00912102
0.00939223
0.00466851
0.00525724
0.00859343
-0.00911837
-0.00981958
-0.0103479
-0.0107003
-0.0108826
-0.0109066
-0.0107879
-0.0105404
-0.0101784
-0.00971454
-0.00916511
-0.00853367
-0.00757122
-0.00442264
0.0101987
0.0125002
0.00961849
0.00597469
0.00748386
-0.00759651
-0.00818998
-0.00863785
-0.00893848
-0.00909741
-0.00912457
-0.00903169
-0.0088322
-0.0085376
-0.00815664
-0.00769775
-0.00717757
-0.00656071
-0.00539099
0.000408593
0.0123336
0.0143394
0.0148266
0.00597913
-0.00620069
-0.0066908
-0.00706005
-0.0073082
-0.00744088
-0.00746553
-0.0073921
-0.00723355
-0.00700037
-0.00670038
-0.00633574
-0.00590563
-0.00542883
-0.00488053
-0.00389894
0.00690965
0.0138224
0.00880949
0.00141876
-0.00491187
-0.00530192
-0.00559483
-0.00579117
-0.00589522
-0.00591273
-0.00585407
-0.00573005
-0.00555049
-0.00532368
-0.00505214
-0.0047264
-0.00433227
-0.00393336
-0.00355076
-0.00285495
7.66599e-05
-0.000521983
-0.00321885
-0.00371373
-0.00400418
-0.00422402
-0.00436981
-0.00444427
-0.00445299
-0.00440542
-0.00431024
-0.00417638
-0.00401248
-0.00382458
-0.00360902
-0.00334159
-0.00298685
-0.00278347
-0.00270484
-0.00207282
-0.00276568
-0.0026275
-0.00259748
-0.00277988
-0.00293082
-0.00302921
-0.00307578
-0.00307607
-0.00303704
-0.00296603
-0.00287061
-0.00275881
-0.00263804
-0.00251038
-0.00236024
-0.002134
-0.00186976
-0.00189318
-0.00206625
-0.00198606
-0.00176855
-0.00143825
-0.00154027
-0.00167732
-0.00175666
-0.00178301
-0.00177751
-0.00174769
-0.00169938
-0.00163834
-0.00157106
-0.00150484
-0.00144508
-0.00138788
-0.0012957
-0.00108477
-0.00100615
-0.00113154
-0.00119152
-0.00101089
-0.000531396
-0.0005829
-0.000568058
-0.000567027
-0.000563086
-0.000549752
-0.000528713
-0.000501595
-0.000471395
-0.000443736
-0.00042706
-0.000431204
-0.000460902
-0.000504105
-0.000507885
-0.000406473
-0.000375261
-0.000438778
-0.00060478
)
;

boundaryField
{
    leftWall
    {
        type            fixedFluxPressure;
        gradient        uniform 0;
        value           nonuniform List<scalar> 
50
(
5283.94
5279.54
5270.46
5255.91
5223.62
3320.91
1174.74
1160.92
1156.56
1151.45
1142.61
1035.06
702.729
640.237
440.732
2.23974
0.190839
0.174542
0.158768
0.144335
0.131274
0.119519
0.108913
0.0993496
0.0907064
0.0828774
0.075772
0.0692989
0.0633893
0.0579702
0.0529765
0.048335
0.0439828
0.0398536
0.0358994
0.0320777
0.0284374
0.0249075
0.0215275
0.018243
0.0151704
0.0123309
0.0101098
0.00813443
0.00668386
0.00538358
0.00426725
0.00306259
0.00167744
0.000478805
)
;
    }
    rightWall
    {
        type            fixedFluxPressure;
        gradient        uniform 0;
        value           nonuniform List<scalar> 
50
(
3651.52
3664.31
3501.25
2684.23
2506.13
1110.87
1063.55
1061.06
1100.14
1179.53
1078.52
873.034
795.248
785.343
772.678
563.533
99.8515
6.90067
0.649626
0.55099
0.399109
0.350019
0.40147
0.382692
0.352668
0.237091
0.082103
0.0582416
0.0340285
0.0251931
0.0200674
0.00915022
0.00377232
-0.00031866
-0.00177429
-0.00308923
-0.00353209
-0.00248132
0.00346355
0.00365789
0.010399
0.00859343
0.00748386
0.00597913
0.00141876
-0.00321885
-0.0026275
-0.00176855
-0.00101089
-0.00060478
)
;
    }
    lowerWall
    {
        type            fixedFluxPressure;
        gradient        uniform 0;
        value           nonuniform List<scalar> 
62
(
5283.94
5302.5
5338.83
5391.15
5457.3
5534.52
5618.45
5702.53
5778.52
5838.48
5877.38
5894.27
5890.99
5870.43
5837.06
5795.65
5750.35
5705.25
5664.29
5629.4
5601.77
5582.53
5572.31
5572.31
5567.6
5559.24
5546.8
5517.45
4619.7
1519.98
1216.27
1194.37
1192
1183.29
1174.02
2677.81
2607.15
1665.5
1139.6
1131.92
1138.75
1219.47
1161.02
2677.81
2674.24
2711.86
2745.78
2778.16
2818.61
2880.89
2963.52
3058.29
3127.3
3168.41
3174.23
3173.46
3176.04
3221.57
3313.18
3439.45
3568.87
3651.52
)
;
    }
    atmosphere
    {
        type            totalPressure;
        rho             rho;
        psi             none;
        gamma           1;
        p0              uniform 0;
        value           nonuniform List<scalar> 
46
(
0
0
0
-0.00016607
-0.000728755
-0.00127872
-0.00169971
-0.00199146
-0.00216642
-0.00222449
-0.00217348
-0.00203956
-0.00184476
-0.0016097
-0.001351
-0.00108262
-0.000816455
-0.0005633
-0.000334532
-0.000147843
-3.23519e-05
-5.21116e-07
0
0
0
0
0
0
0
0
0
0
0
0
0
0
0
0
0
0
0
0
0
0
0
0
)
;
    }
    defaultFaces
    {
        type            empty;
    }
}


// ************************************************************************* //
