/*--------------------------------*- C++ -*----------------------------------*\
| =========                 |                                                 |
| \\      /  F ield         | OpenFOAM: The Open Source CFD Toolbox           |
|  \\    /   O peration     | Version:  2312                                  |
|   \\  /    A nd           | Website:  www.openfoam.com                      |
|    \\/     M anipulation  |                                                 |
\*---------------------------------------------------------------------------*/
FoamFile
{
    version     2.0;
    format      ascii;
    arch        "LSB;label=32;scalar=64";
    class       volScalarField;
    location    "0.05";
    object      alpha.galistan;
}
// * * * * * * * * * * * * * * * * * * * * * * * * * * * * * * * * * * * * * //

dimensions      [0 0 0 0 0 0 0];

internalField   nonuniform List<scalar> 
2268
(
1
1
1
1
1
1
1
1
1
1
1
1
1
0.78788
0.083181
2.39687e-10
2.31261e-10
1.28577e-10
3.09612e-11
4.36565e-12
3.88966e-13
2.07668e-14
5.09115e-16
1
1
1
1
1
1
1
1
1
1
1
1
1
0.50554
0.0114987
2.48508e-10
6.10548e-10
2.75662e-10
6.17803e-11
8.62731e-12
7.68873e-13
4.10022e-14
1.00755e-15
1
1
1
1
1
1
1
1
1
1
1
1
0.945612
0.289352
2.16462e-10
6.43696e-10
6.18561e-10
2.25427e-10
4.66193e-11
6.19383e-12
5.44487e-13
2.97767e-14
7.79038e-16
1
1
1
1
1
1
1
1
1
1
1
1
0.868871
0.165078
2.14358e-10
1.21819e-09
8.73685e-10
2.56819e-10
4.47001e-11
5.21741e-12
4.23453e-13
2.26077e-14
6.13757e-16
1
1
1
1
1
1
1
1
1
1
1
1
0.783777
0.09112
2.00099e-10
1.16323e-09
6.69024e-10
1.78814e-10
2.98882e-11
3.52487e-12
3.03231e-13
1.78052e-14
5.67776e-16
1
1
1
1
1
1
1
1
1
1
1
0.999997
0.696091
0.046648
2.14358e-10
1.35255e-09
5.80052e-10
1.17407e-10
1.58644e-11
1.65453e-12
1.40902e-13
9.68014e-15
2.77949e-16
1
1
1
1
1
1
1
1
1
1
1
0.99998
0.60635
0.0202473
2.16463e-10
1.76341e-09
6.18878e-10
1.07799e-10
1.32041e-11
1.32644e-12
1.15465e-13
8.14311e-15
3.56206e-16
1
1
1
1
1
1
1
1
1
1
1
0.999911
0.520931
0.00613045
2.30965e-10
1.91852e-09
4.82524e-10
6.94671e-11
7.79588e-12
7.78423e-13
7.08678e-14
5.9477e-15
1.42445e-16
6.44523e-38
1.21156e-38
2.36791e-40
1.9404e-42
3.40326e-44
4.21607e-46
4.96859e-48
4.86253e-50
3.53653e-52
1.88185e-54
7.3252e-57
2.121e-59
4.76266e-62
8.66799e-65
1.26499e-67
1.35222e-70
9.24807e-74
3.40468e-77
4.882e-81
1.20091e-35
1.00678e-35
6.64247e-38
6.0682e-41
1.48778e-41
1.58597e-43
1.36847e-45
1.50194e-47
1.5184e-49
1.09881e-51
5.56219e-54
1.98046e-56
4.95917e-59
8.62746e-62
1.01773e-64
7.96895e-68
4.3529e-71
1.90707e-74
4.92602e-78
1.63978e-33
4.58975e-33
1.34254e-35
2.78721e-37
6.21888e-39
7.98719e-41
7.28519e-43
5.73212e-45
4.38527e-47
3.09662e-49
1.76081e-51
7.50204e-54
2.33505e-56
5.2399e-59
8.41863e-62
9.59569e-65
7.47662e-68
3.55358e-71
7.51886e-75
1.88576e-31
9.76058e-31
2.06716e-33
2.96197e-35
5.56017e-37
1.07487e-38
1.3337e-40
1.13279e-42
7.51271e-45
4.61278e-47
2.67826e-49
1.27811e-51
4.55039e-54
1.16875e-56
2.11484e-59
2.60701e-62
2.07924e-65
9.66871e-69
1.98583e-72
1.54492e-29
1.00729e-28
1.57369e-30
7.64905e-33
6.74386e-35
1.20267e-36
2.07635e-38
2.72142e-40
2.63616e-42
1.87732e-44
9.8631e-47
3.87965e-49
1.16529e-51
2.69785e-54
4.73286e-57
5.99716e-60
5.0913e-63
2.56549e-66
5.78363e-70
1.03235e-27
4.93077e-27
1.13795e-28
1.33136e-32
1.31366e-34
9.1739e-36
3.15027e-37
6.67802e-39
9.25678e-41
8.49476e-43
5.1488e-45
2.03937e-47
5.27828e-50
9.67063e-53
1.64021e-55
2.95712e-58
4.09281e-61
3.16751e-64
9.79562e-68
8.14392e-26
1.56205e-24
1.95653e-26
4.00674e-30
1.92553e-33
1.28757e-34
6.29636e-36
1.81241e-37
3.19357e-39
3.54351e-41
2.49407e-43
1.10175e-45
2.97062e-48
4.67856e-51
4.17549e-54
2.58785e-57
2.12234e-60
1.70907e-63
6.7629e-67
5.0699e-22
2.4502e-23
9.61981e-26
9.60692e-28
4.35128e-31
8.14048e-33
1.14259e-34
1.25845e-36
1.25111e-38
1.06394e-40
7.21625e-43
4.22766e-45
2.34413e-47
1.17579e-49
4.66805e-52
1.31095e-54
2.37483e-57
2.44751e-60
1.07347e-63
1
1
1
1
1
1
1
1
1
1
1
0.999684
0.417864
0.000116428
2.33539e-10
3.6116e-10
7.98705e-11
1.176e-11
1.51202e-12
1.85195e-13
2.40742e-14
8.71082e-16
1.63141e-16
1
1
1
1
1
1
1
1
1
1
1
0.998513
0.311179
4.84839e-08
4.84268e-10
2.5161e-10
5.17439e-11
1.08287e-11
1.70014e-12
2.5208e-13
9.94689e-15
2.32467e-15
1.73719e-16
1
1
1
1
1
1
1
0.99988
0.997288
0.988147
0.964231
0.873484
0.244932
3.85439e-10
3.83006e-10
1.59853e-10
3.74549e-11
6.61875e-12
9.97171e-13
1.37632e-13
1.96766e-14
7.05915e-16
1.55659e-16
0.797955
0.791069
0.77713
0.755615
0.72577
0.686576
0.636719
0.57459
0.499897
0.410449
0.305489
0.136598
0.138964
0.0054476
9.34503e-11
9.2863e-11
2.7685e-11
5.08306e-12
7.47465e-13
1.0638e-13
3.95224e-15
8.78353e-16
9.49443e-17
-7.52849e-229
0
-2.77752e-209
0
0
-1.77761e-207
0
0
-1.28091e-190
0
-1.01484e-161
-1.65596e-91
-1.88672e-92
0
1.14662e-08
5.71892e-10
1.66188e-11
3.13265e-14
5.82681e-15
8.49723e-16
8.08382e-17
8.26793e-18
9.92406e-19
1.4616e-206
6.84458e-195
4.26977e-180
2.24244e-174
7.05234e-165
6.82086e-159
3.76683e-153
9.78643e-152
1.06722e-147
2.33547e-140
8.68876e-133
3.53727e-126
1.27875e-129
1.00196e-149
0
-2.65314e-168
8.39455e-186
7.48818e-142
4.68012e-143
-7.48818e-142
-1.02923e-130
2.51262e-134
-5.09274e-148
1.16138e-196
1.58883e-181
1.18722e-175
4.69059e-166
1.30837e-161
2.89485e-154
6.38422e-150
1.67863e-145
5.9895e-138
9.42919e-136
8.76609e-130
2.5962e-123
1.26083e-126
2.42285e-133
3.00262e-129
5.2121e-125
1.26095e-122
8.76205e-120
1.43462e-117
6.39956e-114
1.14095e-105
1.08514e-96
4.51199e-98
2.40357e-183
4.02626e-177
2.73034e-167
6.25528e-163
1.6987e-155
5.20947e-151
1.91175e-146
7.34464e-139
1.88087e-134
3.73312e-133
7.75308e-127
1.26064e-120
9.96012e-124
2.51575e-130
4.81377e-122
7.63899e-119
1.66005e-116
2.19812e-113
7.8415e-111
1.92812e-107
4.56221e-99
3.8345e-94
1.67371e-95
5.21942e-179
9.06219e-166
2.1669e-163
8.02968e-157
3.34576e-152
1.75992e-147
7.60955e-140
2.39526e-135
2.23912e-131
3.18988e-130
4.04536e-124
3.88077e-117
4.75429e-121
4.36697e-127
8.36588e-116
5.58165e-113
1.84054e-110
2.63898e-107
1.28835e-104
2.12155e-101
1.25314e-93
2.49644e-92
1.15108e-93
1.69405e-167
9.10452e-163
2.01823e-158
1.44638e-153
1.11762e-148
6.05739e-141
2.4843e-136
2.91913e-132
2.16665e-128
6.49149e-128
1.44784e-120
1.11718e-113
1.35346e-117
8.69599e-125
1.90985e-110
2.55857e-107
1.75641e-104
2.09052e-101
1.10513e-98
1.13021e-95
5.05826e-91
5.22238e-89
1.24319e-90
9.7362e-163
2.15393e-159
4.85346e-155
6.04286e-150
4.17779e-142
2.15468e-137
3.13567e-133
2.87473e-129
1.11428e-125
1.84302e-123
4.43741e-117
1.42754e-110
3.49292e-114
4.69397e-121
9.02294e-108
1.97848e-102
1.67361e-99
1.13106e-96
4.70198e-94
1.96209e-91
5.35204e-89
5.99834e-87
4.99071e-86
6.31002e-159
1.90326e-156
2.41515e-151
2.3045e-143
1.56023e-138
2.84284e-134
3.20263e-130
1.43961e-126
4.13244e-122
8.31449e-118
5.96403e-114
1.06369e-107
3.8998e-111
7.7378e-115
3.60325e-105
5.76121e-100
4.15371e-97
2.06195e-94
7.46805e-92
2.00098e-89
4.40302e-87
2.18442e-84
6.7548e-81
8.13563e-156
6.00275e-153
8.49906e-145
8.30725e-140
2.02872e-135
2.89084e-131
1.54094e-127
5.40413e-123
1.34272e-118
1.14008e-114
4.69346e-111
5.15092e-105
2.47371e-108
3.89212e-109
8.44045e-103
1.40771e-97
7.75388e-95
2.85843e-92
7.6617e-90
1.63284e-87
8.01955e-85
1.64041e-81
3.36346e-78
2.40153e-153
1.81269e-146
2.93926e-141
1.04204e-136
1.99472e-132
1.29988e-128
5.76651e-124
1.79589e-119
1.87672e-115
9.13982e-112
2.464e-108
1.74633e-102
9.87241e-106
2.14238e-105
3.38036e-100
2.67826e-95
1.10081e-92
2.9719e-90
6.25117e-88
3.11378e-85
5.53286e-82
7.88667e-79
1.12421e-75
1.62393e-148
6.80423e-143
3.8698e-138
1.04903e-133
8.48512e-130
5.03154e-125
1.98841e-120
2.5802e-116
1.54284e-112
4.90895e-109
9.44017e-106
4.50465e-100
2.63218e-103
7.56737e-104
9.74714e-97
3.9173e-93
1.13571e-90
2.3825e-88
1.27338e-85
2.32959e-82
3.20476e-79
1.72381e-76
3.50526e-73
6.6081e-145
9.42266e-140
4.07072e-135
4.1989e-131
3.57117e-126
1.82459e-121
2.97245e-117
2.19712e-113
8.56977e-110
1.93798e-106
2.79391e-103
9.26597e-98
9.98116e-101
2.18244e-99
1.63146e-93
4.29027e-91
8.78352e-89
5.28922e-86
1.05152e-82
1.45812e-79
1.25149e-76
4.78968e-74
6.80549e-71
8.13273e-142
9.26677e-137
1.43921e-132
1.79648e-127
1.25397e-122
2.67163e-118
2.51634e-114
1.2283e-110
3.4372e-107
5.87747e-104
6.62311e-101
1.68274e-95
2.00751e-95
6.1998e-94
1.64326e-91
3.09467e-89
2.16341e-86
4.68353e-83
6.81337e-80
5.89548e-77
4.08131e-74
2.2397e-71
1.21026e-68
1.46596e-135
5.54895e-131
1.23484e-125
1.26068e-120
3.66323e-116
4.51977e-112
2.81991e-108
9.89811e-105
2.10086e-101
2.81976e-98
2.51002e-95
1.20696e-92
6.36073e-90
1.16123e-88
1.96004e-86
1.75134e-83
4.14514e-80
6.35578e-77
5.7752e-74
3.89938e-71
1.75831e-68
5.68193e-66
6.19218e-64
7.99908e-130
5.26603e-124
4.55846e-119
1.22855e-114
1.45519e-110
8.90136e-107
3.09864e-103
6.51987e-100
8.6105e-97
7.22284e-94
3.95451e-91
1.28773e-88
1.71129e-86
4.53647e-84
6.40275e-81
1.03865e-77
1.09059e-74
7.2559e-72
3.19844e-69
8.51021e-67
1.36675e-64
1.48479e-62
3.49315e-60
4.4e-126
1.03298e-120
4.59254e-116
7.92209e-112
6.62674e-108
3.03647e-104
8.20674e-101
1.36728e-97
1.43621e-94
9.60569e-92
4.15132e-89
1.17918e-86
3.40331e-84
3.73792e-81
5.50741e-78
5.74584e-75
3.95485e-72
1.83279e-69
5.12875e-67
8.31751e-65
8.06676e-63
1.68944e-60
3.00032e-58
8.23307e-132
3.58895e-127
1.12149e-122
3.67371e-116
4.6837e-112
2.0286e-108
2.49527e-103
1.68092e-99
4.24844e-96
5.30919e-93
3.55551e-90
1.24519e-87
2.40052e-85
1.41062e-81
3.59901e-78
4.29864e-75
2.25805e-72
4.90945e-70
4.74338e-68
2.08479e-66
3.89702e-65
2.1276e-62
1.26185e-60
1.10515e-129
4.35218e-125
7.34773e-121
6.0581e-117
2.79934e-113
8.40319e-110
1.86332e-106
3.23901e-103
4.34098e-100
4.27939e-97
2.95258e-94
1.37973e-91
4.40688e-89
1.05322e-86
1.89843e-84
2.5527e-82
3.66883e-80
1.96626e-77
1.4763e-74
6.13904e-72
2.02883e-69
3.07386e-67
5.68734e-63
3.61292e-133
1.26094e-128
1.66906e-124
1.5681e-120
1.62179e-116
1.209e-112
6.38508e-109
1.90348e-105
3.16896e-102
3.14777e-99
1.97567e-96
8.18872e-94
2.36725e-91
5.15698e-89
9.03083e-87
1.69916e-84
1.61891e-81
2.25218e-78
1.74082e-75
8.38246e-73
2.5008e-70
6.70165e-66
8.44337e-64
1.52117e-134
5.64683e-130
7.00463e-126
4.49317e-122
2.0812e-118
7.6172e-115
2.94533e-111
9.35282e-108
1.88013e-104
2.36441e-101
1.9519e-98
1.10633e-95
4.47354e-93
1.32911e-90
2.99689e-88
5.44843e-86
7.77012e-83
2.14194e-79
2.47248e-76
1.51118e-73
5.60391e-71
1.36203e-68
2.41163e-66
2.50756e-139
2.16487e-134
4.593e-130
4.67413e-126
3.17472e-122
2.13896e-118
1.01558e-114
3.25252e-111
7.09993e-108
1.05466e-104
1.07907e-101
7.77396e-99
4.03156e-96
1.52845e-93
4.26654e-91
8.86377e-89
1.41309e-86
1.23721e-83
5.58404e-80
6.87004e-77
4.16317e-74
1.53375e-71
3.83729e-69
2.67502e-145
8.88683e-138
3.75567e-133
5.22807e-129
3.76058e-125
1.71949e-121
5.81909e-118
1.56194e-114
3.27362e-111
5.20749e-108
6.03422e-105
4.96738e-102
2.91175e-99
1.23206e-96
3.80698e-94
8.64126e-92
1.4503e-89
1.83458e-87
9.56809e-85
6.28751e-81
1.5711e-76
1.03692e-73
3.43717e-71
1.03517e-150
8.23535e-145
1.51989e-137
4.31723e-133
4.53337e-129
2.61603e-125
9.94973e-122
2.84695e-118
6.57025e-115
1.20456e-111
1.69196e-108
1.76322e-105
1.33602e-102
7.32857e-100
2.92522e-97
8.54165e-95
1.82672e-92
2.86089e-90
8.09606e-88
1.67856e-83
4.29041e-80
5.6612e-77
3.20449e-74
9.41195e-156
1.60835e-150
6.84033e-145
9.48114e-138
2.06693e-133
1.77447e-129
8.70217e-126
2.89025e-122
7.34534e-119
1.52416e-115
2.54662e-112
3.2981e-109
3.21605e-106
2.29169e-103
1.1847e-100
4.49973e-98
1.27721e-95
2.78063e-93
5.40654e-91
2.38697e-88
4.70064e-84
1.17482e-80
1.29988e-77
1.07245e-164
9.75728e-156
8.68177e-151
2.66624e-145
3.16545e-138
5.71556e-134
4.23499e-130
1.84169e-126
5.5359e-123
1.20906e-119
2.18732e-116
3.43753e-113
4.37642e-110
4.23157e-107
2.99551e-104
1.54585e-101
5.9068e-99
1.70753e-96
3.91598e-94
9.26389e-92
4.94775e-89
9.56937e-85
2.45807e-81
1.20257e-171
7.54051e-165
3.86519e-156
2.41171e-151
6.12132e-146
6.70911e-139
1.05829e-134
7.05255e-131
2.81343e-127
7.88088e-124
1.63459e-120
2.82132e-117
4.22487e-114
5.1619e-111
4.85713e-108
3.40851e-105
1.77522e-102
6.95384e-100
2.07778e-97
5.03875e-95
1.42008e-92
8.9971e-90
1.8258e-85
3.31547e-185
6.67713e-172
2.19124e-165
8.31395e-157
4.13176e-152
9.4017e-147
1.00179e-139
1.43758e-135
8.90378e-132
3.35275e-128
8.98127e-125
1.82697e-121
3.10267e-118
4.52284e-115
5.38876e-112
4.90458e-109
3.31744e-106
1.67841e-103
6.62361e-101
2.10164e-98
5.78444e-96
2.10714e-93
1.6316e-90
8.53865e-195
1.2175e-185
1.5499e-172
3.60791e-166
1.13587e-157
4.8496e-153
1.05043e-147
1.13034e-140
1.52409e-136
9.02965e-133
3.15229e-129
8.07035e-126
1.65987e-122
2.9004e-119
4.29268e-116
5.15766e-113
4.68065e-110
3.13711e-107
1.58322e-104
6.46502e-102
2.24253e-99
7.2329e-97
3.41432e-94
3.43622e-211
2.82675e-195
2.18644e-186
2.05354e-173
3.86678e-167
1.08121e-158
4.18359e-154
9.05515e-149
1.01182e-141
1.32184e-137
7.69739e-134
2.57776e-130
6.47768e-127
1.37099e-123
2.50246e-120
3.83645e-117
4.75697e-114
4.44415e-111
3.06842e-108
1.60925e-105
7.02405e-103
2.73318e-100
1.05098e-97
2.96432e-230
9.70271e-212
3.95657e-196
2.34876e-187
1.76625e-174
2.9174e-168
7.609e-160
2.78452e-155
6.26818e-150
7.47951e-143
9.73685e-139
5.72018e-135
1.91397e-131
2.75456e-128
7.1629e-125
1.8369e-121
3.28134e-118
4.39627e-115
4.38087e-112
3.2415e-109
1.83868e-106
8.89143e-104
3.97916e-101
2.58644e-236
4.26374e-231
1.10947e-212
3.11797e-197
1.63027e-188
1.0557e-175
1.622e-169
4.11035e-161
1.47409e-156
3.59714e-151
4.69475e-144
6.26504e-140
3.81064e-136
1.32481e-132
3.54814e-129
8.39513e-126
1.74031e-122
3.02527e-119
4.29512e-116
4.67579e-113
3.82816e-110
2.44212e-107
1.35691e-104
0
2.60966e-237
2.45939e-232
6.72281e-214
1.52451e-198
7.59737e-190
2.26057e-180
3.39451e-174
8.66079e-166
5.23475e-158
1.73819e-152
2.54694e-145
3.58622e-141
2.32675e-137
4.24852e-134
3.58462e-131
1.67333e-128
5.23171e-126
2.62561e-123
3.96287e-120
6.11714e-117
5.26304e-111
3.9203e-108
0
0
9.80739e-239
7.22083e-234
2.3263e-215
4.73496e-200
2.38234e-191
1.3847e-178
2.12554e-172
5.69756e-164
2.20477e-159
7.11944e-154
1.19783e-146
1.84534e-142
1.32237e-138
5.55858e-135
1.82185e-131
5.32382e-128
1.13775e-124
2.06068e-121
3.41097e-118
4.76224e-115
5.31006e-112
0
0
0
1.64032e-240
1.09819e-235
4.48924e-217
8.94766e-202
4.80245e-193
8.81556e-181
4.77747e-174
1.41481e-165
6.07272e-161
2.40215e-155
4.82532e-148
1.6038e-144
2.17093e-141
1.6719e-138
8.9114e-133
4.34643e-129
1.13397e-125
2.39062e-122
4.67923e-119
7.9499e-116
0
0
0
0
1.11317e-242
7.60167e-238
4.20177e-219
8.9533e-204
5.46045e-195
3.68026e-182
7.01532e-176
2.421e-167
1.22284e-162
6.27614e-157
1.5827e-149
3.37418e-145
3.39836e-141
2.07189e-137
9.9663e-134
4.28786e-130
1.37974e-126
3.80223e-123
9.70318e-120
0
0
0
0
0
2.08002e-245
1.63872e-240
1.32126e-221
3.35665e-206
2.55961e-197
2.13347e-184
5.14644e-178
2.2747e-169
1.48488e-164
1.07344e-158
3.68935e-151
1.04133e-146
1.40353e-142
1.1628e-138
7.64748e-135
4.48302e-131
2.05323e-127
8.17228e-124
0
0
0
0
0
0
3.29879e-249
3.63517e-244
4.88872e-225
1.78751e-209
2.02786e-200
1.91874e-187
6.0671e-181
6.15504e-172
6.18958e-167
7.37839e-161
4.06373e-153
1.81723e-148
3.91718e-144
5.26423e-140
5.6216e-136
5.39405e-132
4.17561e-128
0
0
0
0
0
0
0
2.25501e-256
5.80705e-251
2.00769e-231
1.77329e-215
4.97405e-206
1.05838e-192
7.88687e-186
2.43217e-176
6.3656e-171
2.0487e-164
3.05739e-156
3.73251e-151
2.24062e-146
8.49205e-142
2.61947e-137
7.38857e-133
6.46798e-17
2.40368e-17
2.11036e-18
4.47439e-19
7.43026e-17
1.48515e-17
5.64065e-18
6.37595e-19
5.49604e-17
1.80386e-17
1.57468e-18
2.97972e-20
3.27087e-17
7.31609e-18
1.8742e-19
6.90685e-22
2.23812e-19
4.12575e-20
7.01978e-22
4.66677e-25
-1.63377e-128
1.09313e-47
6.54551e-32
1.21946e-29
9.65343e-104
1.04847e-40
4.08745e-35
8.62618e-31
9.00995e-112
2.97206e-45
2.87709e-36
7.25423e-32
-2.91713e-112
2.97203e-49
4.78905e-38
1.34441e-33
9.75271e-109
2.11959e-53
8.43721e-41
5.89978e-35
1.81971e-102
1.4178e-57
3.88324e-44
1.25296e-37
1.48391e-83
2.55845e-61
2.78581e-45
4.24383e-39
5.81586e-81
8.57528e-96
4.2464e-46
1.07851e-40
2.32866e-78
-2.89465e-94
5.36943e-47
2.41892e-42
6.60678e-76
1.36286e-75
8.76732e-48
5.88245e-44
1.9193e-71
1.37951e-75
1.25212e-48
1.4281e-45
1.49681e-66
4.87732e-66
7.80281e-50
3.3726e-47
8.7857e-62
9.74063e-61
6.22276e-52
2.593e-50
5.35096e-58
3.24081e-57
1.09501e-54
1.78653e-52
2.06822e-56
2.72316e-55
8.94512e-54
4.12763e-53
8.22329e-59
4.06411e-56
1.09322e-54
3.61863e-54
5.56846e-61
8.83237e-58
3.98318e-56
1.40091e-55
6.49251e-62
7.40504e-60
6.00676e-58
2.73204e-57
3.24274e-64
1.6265e-62
4.34597e-60
2.78266e-59
7.32252e-67
4.96833e-65
1.78837e-62
1.61597e-61
7.78331e-69
6.433e-67
4.45658e-65
5.69726e-64
1.11831e-71
1.16533e-69
7.31539e-68
1.28679e-66
7.59649e-75
1.09906e-72
3.11667e-71
1.94653e-69
2.74955e-78
6.15546e-76
6.13533e-74
2.02656e-72
4.99823e-82
2.0246e-79
3.05303e-77
1.45518e-75
3.61703e-86
3.5497e-83
9.50249e-81
7.04066e-79
3.18073e-91
2.54403e-87
1.653e-84
2.18308e-82
6.3105e-95
2.22841e-92
1.22229e-88
3.91561e-86
1.8364e-98
4.25466e-96
1.09483e-93
3.14592e-90
7.13608e-102
1.18138e-99
2.08006e-97
2.97974e-95
2.58506e-105
4.76594e-103
5.69851e-101
5.89685e-99
4.81749e-109
6.52398e-107
2.42006e-104
1.69547e-102
1.1059e-112
3.44833e-110
1.00996e-107
7.74011e-106
2.14675e-116
1.12352e-113
3.6168e-111
3.44792e-109
2.97887e-120
2.5043e-117
1.06193e-114
1.30543e-112
2.83018e-124
3.92051e-121
2.44988e-118
4.15662e-116
1.70352e-128
4.35007e-125
4.38407e-122
1.11821e-119
2.01381e-20
4.01366e-23
6.59089e-25
4.10439e-26
6.21801e-29
1.14035e-30
9.75887e-33
9.64905e-35
1.0028e-36
7.39278e-39
3.52021e-41
1.22758e-43
4.30529e-46
1.4996e-48
3.81866e-51
6.35511e-54
6.89104e-57
4.64357e-60
1.50818e-63
2.81107e-20
8.08309e-23
1.81835e-25
2.46427e-26
8.08302e-29
8.29436e-31
4.38833e-33
2.75394e-35
2.7681e-37
1.96303e-39
8.25982e-42
2.02902e-44
3.8856e-47
1.01574e-49
2.59286e-52
4.71105e-55
6.24571e-58
5.59754e-61
2.49499e-64
1.00987e-21
2.07648e-24
7.39086e-26
4.18337e-28
8.75899e-30
1.02737e-31
8.1436e-34
4.80852e-36
2.23077e-38
1.07577e-40
5.57478e-43
2.50611e-45
8.51099e-48
2.03815e-50
3.61839e-53
6.10787e-56
1.13604e-58
1.71318e-61
1.28638e-64
2.06358e-23
8.80748e-26
6.45124e-27
1.9989e-28
2.67922e-30
1.49227e-32
5.61731e-35
5.43349e-37
5.71893e-39
5.35956e-41
3.91575e-43
2.2606e-45
1.07414e-47
4.16982e-50
1.24394e-52
2.63248e-55
3.63018e-58
2.90306e-61
1.03619e-64
2.73454e-26
9.39171e-27
2.65434e-28
6.3387e-30
7.15428e-32
6.21144e-34
6.10245e-36
6.47789e-38
6.92268e-40
5.79792e-42
3.73877e-44
1.96382e-46
8.66651e-49
3.10533e-51
8.40648e-54
1.59853e-56
1.99289e-59
1.46462e-62
5.04745e-66
2.26072e-27
1.47597e-28
8.64396e-30
1.94112e-31
2.68418e-33
3.10646e-35
3.90764e-37
5.07725e-39
5.14249e-41
3.90566e-43
2.32987e-45
1.14351e-47
4.62498e-50
1.47294e-52
3.4781e-55
5.76732e-58
5.74378e-61
4.00558e-64
1.25529e-67
1.59368e-28
9.78865e-30
3.36845e-31
6.43925e-33
9.30139e-35
1.47972e-36
2.40892e-38
3.01996e-40
2.78252e-42
1.95166e-44
1.09078e-46
4.96502e-49
1.80775e-51
5.04372e-54
1.03257e-56
1.50083e-59
1.48875e-62
8.54125e-66
3.16689e-69
7.43995e-30
3.71636e-31
9.76174e-33
1.83697e-34
3.73882e-36
7.62042e-38
1.18145e-39
1.32429e-41
1.10473e-43
7.16767e-46
3.73348e-48
1.56098e-50
5.0902e-53
1.24921e-55
2.25026e-58
2.9527e-61
2.82621e-64
1.87126e-67
7.02215e-71
7.56133e-33
2.69406e-34
1.63305e-34
5.59919e-36
1.55578e-37
3.08405e-39
4.27057e-41
4.28487e-43
3.26921e-45
1.97372e-47
9.54651e-50
3.63307e-52
1.05574e-54
2.29306e-57
3.71721e-60
4.59271e-63
4.41406e-66
3.09946e-69
1.17717e-72
1.83211e-36
6.5337e-37
3.85959e-36
1.90516e-37
5.28432e-39
9.43497e-41
1.1684e-42
1.06757e-44
7.56558e-47
4.26015e-49
1.89078e-51
6.45378e-54
1.66247e-56
3.23468e-59
4.88331e-62
5.97202e-65
5.95197e-68
4.30327e-71
1.59311e-74
3.39066e-39
7.74675e-38
1.15199e-37
5.51285e-39
1.40154e-40
2.2698e-42
2.56436e-44
2.17113e-46
1.4347e-48
7.42917e-51
2.96081e-53
8.93834e-56
2.04857e-58
3.66894e-61
5.4126e-64
6.83833e-67
7.07443e-70
5.06967e-73
1.75806e-76
4.23916e-40
4.38369e-39
3.23023e-39
1.34697e-40
3.12186e-42
4.59244e-44
4.7734e-46
3.74944e-48
2.27274e-50
1.05387e-52
3.69598e-55
9.84343e-58
2.05114e-60
3.54054e-63
5.36078e-66
7.08245e-69
7.36988e-72
5.00814e-75
1.56419e-78
3.4749e-41
1.54488e-40
7.84574e-41
2.93659e-42
6.09e-44
8.12092e-46
7.7502e-48
5.54582e-50
2.99155e-52
1.21164e-54
3.71206e-57
8.87397e-60
1.7567e-62
3.08401e-65
4.89946e-68
6.58908e-71
6.58943e-74
4.08057e-77
1.1145e-80
1.98559e-42
4.22876e-42
1.66996e-42
5.72319e-44
1.05981e-45
1.27784e-47
1.09795e-49
6.92023e-52
3.22762e-54
1.12909e-56
3.06368e-59
6.85606e-62
1.36555e-64
2.5159e-67
4.10335e-70
5.35887e-73
4.94492e-76
2.71302e-79
6.40416e-83
8.83285e-44
1.14687e-43
3.25831e-44
1.01493e-45
1.67036e-47
1.78045e-49
1.32596e-51
7.12501e-54
2.83153e-56
8.64773e-59
2.16362e-61
4.81387e-64
1.0041e-66
1.91149e-69
3.04887e-72
3.70409e-75
3.06619e-78
1.46921e-81
3.02008e-85
3.3921e-45
3.43151e-45
6.13422e-46
1.67333e-47
2.36503e-49
2.12895e-51
1.32389e-53
5.95734e-56
2.03416e-58
5.63903e-61
1.38508e-63
3.21514e-66
6.96335e-69
1.30461e-71
1.94303e-74
2.13345e-77
1.55826e-80
6.51158e-84
1.18175e-87
3.63732e-48
2.58578e-48
1.13662e-47
2.56312e-49
2.97242e-51
2.17699e-53
1.10325e-55
4.14089e-58
1.24366e-60
3.31248e-63
8.44822e-66
2.04411e-68
4.38285e-71
7.69625e-74
1.03764e-76
1.01258e-79
6.47293e-83
2.36859e-86
3.78193e-90
1.82436e-52
4.35526e-50
2.04866e-49
3.63644e-51
3.34312e-53
1.96121e-55
8.16897e-58
2.65615e-60
7.49194e-63
2.0225e-65
5.29324e-68
1.25294e-70
2.48789e-73
3.90746e-76
4.6307e-79
3.93938e-82
2.19435e-85
7.0166e-89
9.68941e-93
7.24552e-54
4.48026e-52
3.40316e-51
4.59025e-53
3.27571e-55
1.54564e-57
5.47353e-60
1.64378e-62
4.65236e-65
1.29185e-67
3.31907e-70
7.28676e-73
1.29318e-75
1.7817e-78
1.83569e-81
1.35098e-84
6.48788e-88
1.78469e-91
2.11392e-95
5.15958e-55
2.27004e-54
4.76417e-53
4.94263e-55
2.74654e-57
1.07559e-59
3.44856e-62
1.02747e-64
2.98733e-67
8.2107e-70
1.96233e-72
3.85269e-75
5.99299e-78
7.16703e-81
6.37352e-84
4.03326e-87
1.65831e-90
3.8997e-94
3.94524e-98
2.90761e-56
6.17793e-57
4.92874e-55
4.36648e-57
1.96404e-59
6.81752e-62
2.14137e-64
6.55876e-67
1.89713e-69
4.88463e-72
1.04603e-74
1.80065e-77
2.42998e-80
2.50558e-83
1.91155e-86
1.03458e-89
3.61532e-93
7.22168e-97
6.19409e-101
8.89121e-58
4.2875e-59
3.24308e-57
3.09722e-59
1.22152e-61
4.11667e-64
1.33404e-66
4.10578e-69
1.1221e-71
2.59994e-74
4.89128e-77
7.31049e-80
8.50636e-83
7.51996e-86
4.88998e-89
2.24683e-92
6.61608e-96
1.11272e-99
7.92558e-104
1.4521e-59
1.55466e-61
1.15966e-59
1.79156e-61
6.89185e-64
2.42327e-66
8.03613e-69
2.36643e-71
5.88451e-74
1.20375e-76
1.9726e-79
2.54768e-82
2.54506e-85
1.91879e-88
1.05601e-91
4.0668e-95
9.96937e-99
1.38658e-102
7.83343e-107
1.30833e-61
5.82532e-64
1.731e-62
8.89628e-64
3.65986e-66
1.35563e-68
4.40362e-71
1.19452e-73
2.65209e-76
4.75506e-79
6.76437e-82
7.52608e-85
6.42734e-88
4.10716e-91
1.89668e-94
6.04653e-98
1.21336e-101
1.34832e-105
5.69532e-110
6.9104e-64
3.10501e-68
3.76383e-68
3.99612e-66
1.81284e-68
6.81431e-71
2.08711e-73
5.12116e-76
1.0084e-78
1.58161e-81
1.94955e-84
1.86245e-87
1.35247e-90
7.26649e-94
2.78403e-97
7.2295e-101
1.1572e-104
9.81059e-109
3.07965e-113
2.30249e-66
5.14059e-70
7.67336e-70
1.61545e-68
7.97866e-71
2.92679e-73
8.29432e-76
1.83205e-78
3.19777e-81
4.38612e-84
4.67524e-87
3.81829e-90
2.34078e-93
1.04592e-96
3.27262e-100
6.77547e-104
8.36995e-108
5.32546e-112
1.26317e-116
5.21155e-69
5.67424e-72
8.81054e-72
5.23638e-71
2.97159e-73
1.04168e-75
2.71818e-78
5.41048e-81
8.38255e-84
1.00498e-86
9.23607e-90
6.41122e-93
3.28699e-96
1.20435e-99
3.01437e-103
4.845e-107
4.52337e-111
2.18632e-115
4.1464e-120
8.4827e-72
2.80861e-74
4.98408e-74
1.21206e-73
9.0915e-76
3.02688e-78
7.2832e-81
1.30962e-83
1.80126e-86
1.8838e-89
1.48542e-92
8.69143e-96
3.67989e-99
1.08607e-102
2.12752e-106
2.60639e-110
1.85645e-114
7.15373e-119
1.03271e-123
1.00997e-74
6.06311e-77
1.22618e-76
2.97154e-76
2.25435e-78
7.13478e-81
1.58748e-83
2.58295e-86
3.14765e-89
2.85938e-92
1.92001e-95
9.36123e-99
3.22075e-102
7.50735e-106
1.13332e-109
1.06566e-113
6.02446e-118
1.78008e-122
2.23952e-127
8.64486e-78
6.01235e-80
1.17381e-79
8.97842e-79
4.5103e-81
1.36036e-83
2.80333e-86
4.12614e-89
4.43721e-92
3.4774e-95
1.96754e-98
7.87713e-102
2.16352e-105
3.92456e-109
4.59156e-113
3.41881e-117
1.48849e-121
3.75174e-126
4.38788e-131
5.22437e-81
4.67848e-83
7.29984e-83
1.45752e-81
7.27748e-84
2.09473e-86
3.99482e-89
5.30267e-92
5.0013e-95
3.34965e-98
1.57655e-101
5.10422e-105
1.10528e-108
1.56489e-112
1.44891e-116
8.33567e-121
3.02562e-125
7.02589e-130
3.77846e-135
2.25743e-84
3.27667e-86
3.3074e-86
1.90736e-84
9.47865e-87
2.60167e-89
4.57571e-92
5.44226e-95
4.46186e-98
2.52423e-101
9.75237e-105
2.52671e-108
4.32069e-112
4.84922e-116
3.47699e-120
1.63263e-124
5.39488e-129
5.8045e-134
1.78731e-139
7.44909e-88
2.64091e-89
1.93476e-89
2.0089e-87
9.97514e-90
2.60263e-92
4.19595e-95
4.42877e-98
3.1213e-101
1.47378e-104
4.63162e-108
9.60414e-112
1.3072e-115
1.13629e-119
6.53044e-124
2.76063e-128
4.23113e-133
2.69856e-138
1.62948e-143
2.04219e-91
1.93257e-92
1.45847e-92
1.68835e-90
8.48004e-93
2.0936e-95
3.06875e-98
2.84271e-101
1.70343e-104
6.65704e-108
1.69837e-111
2.81684e-115
2.96358e-119
2.02316e-123
1.04168e-127
2.04041e-132
1.92264e-137
2.38441e-142
1.51444e-147
4.55423e-95
8.2482e-96
7.44448e-96
1.10535e-93
5.79612e-96
1.35274e-98
1.78543e-101
1.43758e-104
7.272e-108
2.34435e-111
4.81615e-115
6.15681e-119
4.9993e-123
3.01598e-127
7.17535e-132
8.99188e-137
1.63683e-141
2.04446e-146
3.14767e-151
6.79324e-99
2.42822e-99
3.01099e-99
5.43944e-97
3.12489e-99
7.02887e-102
8.27163e-105
5.74495e-108
2.43799e-111
6.37855e-115
1.00654e-118
9.77529e-123
6.95228e-127
1.93296e-131
3.06808e-136
7.42014e-141
1.29419e-145
4.13338e-150
3.5432e-155
6.88905e-103
4.65422e-103
1.15271e-102
2.10311e-100
1.26092e-102
2.9504e-105
3.0638e-108
1.81502e-111
6.29961e-115
1.26234e-118
1.49132e-122
1.25927e-126
4.11373e-131
7.97316e-136
2.45937e-140
5.40295e-145
2.53038e-149
4.566e-154
1.13937e-159
9.51836e-107
1.50457e-106
4.37938e-106
9.00255e-104
3.56165e-106
1.0051e-108
9.04596e-112
4.41173e-115
1.16878e-118
1.72891e-122
1.76203e-126
6.80928e-131
1.61671e-135
6.23063e-140
1.64697e-144
1.01673e-148
2.734e-153
1.44572e-158
2.36434e-164
4.05289e-110
1.27435e-109
1.09276e-109
4.35147e-107
9.61213e-110
2.75324e-112
2.05624e-115
7.64753e-119
1.47907e-122
1.87302e-126
8.74341e-131
2.5598e-135
1.23558e-139
3.82885e-144
2.96246e-148
1.069e-152
8.96215e-158
1.57097e-166
0
1.93974e-113
8.20401e-113
2.14772e-113
1.2008e-110
4.41317e-113
5.79759e-116
3.30997e-119
8.92043e-123
1.46656e-126
8.59987e-131
3.1759e-135
1.95269e-139
6.88688e-144
6.55195e-148
3.03845e-152
3.53153e-157
1.93142e-162
0
0
7.92423e-117
4.01872e-116
3.14096e-117
2.6967e-114
8.51426e-117
8.63209e-120
3.56679e-123
8.13316e-127
6.41245e-131
3.14813e-135
2.4797e-139
1.01918e-143
9.59764e-148
6.54825e-152
1.01099e-156
7.77622e-162
0
0
0
2.79448e-120
1.52326e-119
3.657e-121
4.69202e-118
1.17496e-120
8.72304e-124
3.04584e-127
3.60894e-131
2.61735e-135
2.59478e-139
1.18866e-143
1.4885e-147
6.33499e-153
2.19417e-156
2.26294e-161
0
0
0
0
)
;

boundaryField
{
    leftWall
    {
        type            zeroGradient;
    }
    rightWall
    {
        type            zeroGradient;
    }
    lowerWall
    {
        type            zeroGradient;
    }
    atmosphere
    {
        type            inletOutlet;
        inletValue      uniform 0;
        value           nonuniform List<scalar> 
46
(
0
0
0
0
0
0
0
0
0
0
0
0
0
0
0
0
0
0
0
0
0
0
0
1.70352e-128
4.35007e-125
4.38407e-122
1.11821e-119
2.79448e-120
1.52326e-119
3.657e-121
4.69202e-118
1.17496e-120
8.72304e-124
3.04584e-127
3.60894e-131
2.61735e-135
2.59478e-139
1.18866e-143
1.4885e-147
6.33499e-153
2.19417e-156
2.26294e-161
0
0
0
0
)
;
    }
    defaultFaces
    {
        type            empty;
    }
}


// ************************************************************************* //
