/*--------------------------------*- C++ -*----------------------------------*\
| =========                 |                                                 |
| \\      /  F ield         | OpenFOAM: The Open Source CFD Toolbox           |
|  \\    /   O peration     | Version:  2312                                  |
|   \\  /    A nd           | Website:  www.openfoam.com                      |
|    \\/     M anipulation  |                                                 |
\*---------------------------------------------------------------------------*/
FoamFile
{
    version     2.0;
    format      ascii;
    arch        "LSB;label=32;scalar=64";
    class       volScalarField;
    location    "0.05";
    object      alpha.water_0;
}
// * * * * * * * * * * * * * * * * * * * * * * * * * * * * * * * * * * * * * //

dimensions      [0 0 0 0 0 0 0];

internalField   nonuniform List<scalar> 
2268
(
6.64028e-28
2.38108e-27
7.26071e-27
1.80878e-26
6.88753e-26
2.94047e-25
1.93887e-24
1.47734e-23
7.87277e-22
1.83112e-21
4.11838e-23
5.16868e-13
1.65017e-13
5.54106e-15
9.38021e-18
3.52341e-22
2.49577e-25
3.44634e-26
1.86672e-27
5.15402e-29
8.18543e-31
7.71212e-33
3.55871e-35
3.15668e-25
1.44522e-24
3.58445e-24
7.64869e-24
2.21059e-23
8.27966e-23
5.63835e-22
3.94476e-21
1.26353e-19
3.22686e-19
-4.11956e-24
1.13302e-10
1.27202e-11
1.76762e-13
1.65455e-16
8.8443e-19
7.35476e-20
3.58327e-21
5.18409e-23
2.56302e-25
4.58707e-28
1.40425e-29
2.41454e-31
5.30094e-23
3.52603e-22
6.79206e-22
1.24098e-21
2.74455e-21
8.98731e-21
7.14375e-20
4.38231e-19
8.59296e-18
2.41026e-17
-6.00153e-21
2.13148e-09
2.35827e-10
2.97095e-12
2.3643e-15
1.32228e-19
7.04454e-21
1.90382e-22
3.06333e-24
4.23553e-26
6.13874e-28
8.30292e-30
8.18972e-32
3.9554e-21
3.99016e-20
6.15164e-20
9.67275e-20
1.64098e-19
4.53923e-19
4.88564e-18
2.58786e-17
3.24966e-16
9.68499e-16
-6.1069e-20
2.71224e-08
2.49275e-09
4.03605e-12
7.26635e-20
7.29585e-20
2.39948e-20
4.61203e-21
5.39768e-22
4.16345e-23
2.17384e-24
7.26616e-26
1.21375e-27
1.41912e-19
1.93033e-18
2.7364e-18
3.5798e-18
4.55557e-18
9.38796e-18
1.80363e-16
8.9549e-16
7.60064e-15
2.28046e-14
-7.87528e-19
2.57404e-07
1.75263e-08
1.60071e-20
7.862e-18
1.50368e-18
1.31078e-19
7.76237e-21
3.73333e-22
1.70179e-23
7.28581e-25
2.47439e-26
4.77406e-28
6.88342e-17
3.3201e-16
5.05518e-16
7.08946e-16
7.86095e-16
1.36314e-15
3.00148e-15
1.92474e-14
1.15971e-13
3.26466e-13
4.72596e-31
1.94553e-06
2.3342e-07
-6.05893e-25
8.28747e-17
4.81275e-17
1.01167e-17
1.21009e-18
9.72559e-20
5.80475e-21
2.73245e-22
1.01694e-23
5.82394e-26
1.50585e-15
1.37163e-14
1.83489e-14
2.26991e-14
1.45767e-14
4.63674e-14
1.0448e-13
2.6858e-13
1.18002e-12
2.81395e-12
-8.70368e-19
1.21059e-05
2.21767e-06
1.60051e-20
5.50363e-17
2.84338e-17
5.08203e-18
5.31785e-19
3.99023e-20
2.46065e-21
1.35171e-22
6.37967e-24
1.89158e-25
3.43078e-13
3.83918e-13
4.53121e-13
4.92811e-13
2.91325e-13
6.69414e-13
1.16564e-12
2.44123e-12
7.83297e-12
1.40722e-11
-8.31121e-20
6.19228e-05
5.45997e-06
3.86653e-26
8.49915e-17
4.16527e-17
5.92357e-18
6.27401e-19
5.38377e-20
3.92758e-21
2.42548e-22
1.27621e-23
1.5806e-25
2.25841e-46
7.5702e-48
4.27067e-50
3.91157e-52
5.44005e-54
5.26458e-56
3.61866e-58
1.84642e-60
6.85219e-63
1.92076e-65
4.38608e-68
8.57857e-71
1.36932e-73
1.53658e-76
1.06054e-79
4.1502e-83
8.93668e-87
1.22099e-90
6.81962e-95
1.10598e-43
3.31274e-45
1.35407e-47
8.2827e-50
1.1466e-51
1.79182e-53
1.8854e-55
1.3389e-57
6.75504e-60
2.4053e-62
5.92504e-65
9.81779e-68
1.00401e-70
5.96407e-74
4.03929e-77
4.74701e-80
2.80588e-83
7.27205e-87
7.31913e-91
2.67441e-41
5.46429e-43
1.37087e-44
3.97026e-46
3.36928e-48
1.37329e-50
7.45294e-53
4.55197e-55
2.55924e-57
1.16821e-59
3.88532e-62
9.31451e-65
1.61183e-67
2.02936e-70
1.87492e-73
1.21254e-76
4.86337e-80
1.05719e-83
1.06966e-87
2.77544e-39
4.08284e-41
9.61009e-43
5.6323e-44
1.08957e-45
6.66677e-48
2.63825e-50
1.26006e-52
6.49877e-55
2.69278e-57
9.87074e-60
2.77852e-62
5.68833e-65
8.1308e-68
7.75503e-71
4.78001e-74
1.77801e-77
3.35803e-81
2.23422e-85
1.12482e-37
1.36031e-38
2.84852e-40
7.85439e-42
1.58777e-43
2.18686e-45
2.09177e-47
1.3347e-49
5.60436e-52
1.59454e-54
3.53688e-57
7.5448e-60
1.5102e-62
2.4228e-65
2.77266e-68
2.06773e-71
9.28574e-75
2.30398e-78
2.66744e-82
1.36421e-36
1.39711e-37
3.76592e-39
1.74656e-41
1.4368e-42
4.80111e-44
8.63529e-46
9.13323e-48
5.64766e-50
1.96118e-52
3.52356e-55
3.44052e-58
6.45494e-61
2.08034e-63
4.32282e-66
5.45863e-69
3.81149e-72
1.2438e-75
1.31308e-79
6.55763e-36
4.83851e-37
3.11991e-38
1.18675e-39
1.85644e-40
1.94438e-42
3.32667e-44
4.51629e-46
3.56996e-48
1.53525e-50
3.31417e-53
2.92073e-56
5.84124e-60
1.01409e-62
1.6144e-65
1.91823e-68
1.53468e-71
7.75594e-75
2.01933e-78
2.80738e-38
2.42237e-38
2.80734e-38
2.59605e-35
1.66657e-37
1.10336e-39
5.5873e-42
1.76373e-44
3.14319e-47
4.95435e-50
1.95998e-52
7.52827e-55
3.17738e-57
1.16551e-59
3.06776e-62
5.31624e-65
5.64263e-68
3.24445e-71
7.4923e-75
6.36124e-12
6.94261e-12
7.24905e-12
6.81921e-12
6.83881e-12
6.18285e-12
8.13936e-12
1.34778e-11
2.85525e-11
3.54919e-11
-2.77114e-19
0.000252769
7.81132e-06
1.6006e-13
8.68791e-17
2.27729e-16
2.69114e-17
2.64127e-18
2.30207e-19
1.70936e-20
1.19163e-21
2.27822e-23
3.4662e-24
1.3852e-10
1.41903e-10
1.29883e-10
1.01252e-10
7.25556e-11
5.17475e-11
4.83996e-11
6.14551e-11
3.27168e-20
1.67646e-20
1.04449e-20
0.00137644
5.06645e-06
2.22222e-05
4.41278e-07
2.31362e-16
2.52622e-15
5.35761e-16
7.50132e-17
8.82976e-18
3.68908e-19
6.09698e-20
3.54202e-21
1.49947e-09
1.49886e-09
1.20273e-09
7.9263e-10
3.37488e-10
4.68387e-11
4.82746e-11
4.71888e-11
0.000627485
0.00550289
0.0210672
0.0888673
0.0346157
0.000628394
6.23627e-16
6.12614e-16
2.13728e-14
1.06311e-14
2.93549e-15
5.85693e-16
1.00115e-16
7.73467e-18
1.56633e-18
0.181325
0.187542
0.200134
0.219573
0.246541
0.281959
0.327004
0.383218
0.452385
0.536922
0.639323
0.815366
0.139946
1.82154e-10
1.76157e-11
7.49678e-12
1.56931e-12
2.27005e-13
2.79018e-14
3.32407e-15
1.76613e-16
2.98298e-17
3.55086e-18
1
1
1
1
1
1
1
1
1
1
1
0.999959
0.0879104
1.88194e-11
1.95773e-11
4.32686e-12
3.84997e-13
5.97617e-14
7.09481e-15
8.25029e-16
4.29718e-17
6.53711e-18
6.90482e-19
1
1
1
1
1
1
1
1
1
1
1
1
0.118358
2.30432e-09
2.62037e-10
4.66062e-11
5.92165e-12
3.58669e-13
4.67132e-14
4.80823e-15
2.13907e-16
2.97472e-17
2.75459e-18
1
1
1
1
1
1
1
1
1
1
1
1
0.180642
2.20921e-09
3.06057e-10
5.45462e-11
7.00505e-12
7.34785e-13
6.81226e-14
6.01118e-15
2.2894e-16
2.75953e-17
2.22757e-18
1
1
1
1
1
1
1
1
1
1
1
1
0.198279
1.66494e-09
2.4421e-10
4.17862e-11
4.952e-12
4.70571e-13
3.90208e-14
2.91796e-15
2.10078e-16
5.41714e-18
5.89801e-19
1
1
1
1
1
1
1
1
1
1
1
1
0.197329
9.13577e-10
1.74633e-10
3.11447e-11
2.55607e-12
2.74202e-13
2.1199e-14
1.44337e-15
8.93671e-17
5.22656e-18
3.52726e-20
1
1
1
1
1
1
1
1
1
1
1
1
0.185083
1.63378e-10
1.12198e-10
1.82817e-11
1.67982e-12
1.20009e-13
7.83348e-15
4.74362e-16
2.53703e-17
1.26481e-18
5.88353e-21
1
1
1
1
1
1
1
1
1
1
1
1
0.168607
4.4643e-10
1.18684e-10
1.305e-11
1.11124e-12
6.67178e-14
3.41943e-15
1.58071e-16
6.58488e-18
2.66136e-19
1.57043e-21
1
1
1
1
1
1
1
1
1
1
1
1
0.150008
1.54965e-09
1.83208e-10
1.16765e-11
6.95261e-13
3.4123e-14
1.38203e-15
4.89666e-17
1.01701e-18
4.44469e-20
9.95444e-23
1
1
1
1
1
1
1
1
1
1
1
1
0.130382
5.21408e-09
4.54086e-10
2.5192e-11
1.05153e-12
3.58871e-14
1.05933e-15
1.28617e-17
1.46449e-19
1.45893e-22
4.5972e-27
1
1
1
1
1
1
1
1
1
1
1
0.999999
0.110394
7.60582e-09
5.69533e-10
2.76935e-11
1.0422e-12
3.16075e-14
4.53045e-16
4.5442e-18
1.69743e-20
2.50857e-23
3.20117e-28
1
1
1
1
1
1
1
1
1
1
1
0.999995
0.0901481
8.36222e-09
6.04706e-10
3.04865e-11
1.15147e-12
1.56969e-14
2.03314e-16
5.45931e-18
1.18989e-19
1.28543e-21
4.33663e-26
1
1
1
1
1
1
1
1
1
1
1
0.999963
0.0695431
6.48992e-09
4.35627e-10
1.98648e-11
6.10384e-13
3.69023e-15
1.79072e-17
5.66091e-19
9.23711e-21
8.41419e-23
1.18944e-26
1
1
1
1
1
1
1
1
1
1
1
0.999803
0.0556869
2.60619e-08
1.15486e-10
1.83746e-12
3.55769e-14
2.74424e-16
7.49621e-19
2.53801e-21
3.00524e-25
1.1825e-28
8.72571e-33
0.997853
0.997731
0.997484
0.997104
0.996552
0.9958
0.994787
0.993466
0.991723
0.989267
0.983442
0.968382
0.0690461
1.20234e-18
-4.13948e-38
-2.14848e-24
-9.98412e-27
-2.87707e-29
-6.02964e-32
-9.61472e-35
-1.21885e-37
-1.36835e-40
-1.71082e-43
0.507924
0.505753
0.501567
0.495355
0.487203
0.477192
0.465414
0.451885
0.436315
0.417413
0.380552
0.316894
0.0775892
-3.27892e-21
-7.99077e-21
-2.31366e-23
-2.19247e-26
-1.40118e-29
-6.83067e-33
-2.56288e-36
-9.1054e-40
-7.56744e-43
-2.37734e-45
-1.806e-112
-1.79618e-108
-8.11388e-105
-2.00013e-101
3.87381e-88
6.9196e-85
3.96356e-82
1.26213e-79
2.47207e-77
4.00358e-75
1.10131e-72
3.69008e-70
7.97482e-68
1.49191e-65
3.48164e-65
5.51117e-63
6.89521e-61
7.07358e-59
8.22806e-57
1.60574e-54
3.37986e-52
5.52404e-50
4.92297e-48
9.52842e-110
8.3706e-106
3.38881e-102
7.58305e-99
1.04879e-95
9.53034e-93
5.91882e-90
2.71007e-87
1.17892e-84
5.96618e-82
1.8368e-77
3.55179e-74
2.4622e-71
1.03907e-68
2.73437e-66
4.19086e-64
3.8204e-62
4.62867e-60
2.06503e-57
7.63381e-55
1.18445e-52
7.50512e-51
1.87271e-49
6.55695e-111
5.46243e-107
2.06777e-103
5.03051e-100
1.0233e-96
1.99737e-93
3.48931e-90
4.81176e-87
4.81772e-84
3.35633e-81
1.59325e-78
5.14336e-76
1.16529e-73
2.08502e-71
3.05649e-69
3.73453e-67
3.85981e-65
3.33153e-63
2.25011e-61
1.04616e-59
2.84277e-58
5.51093e-57
5.24147e-53
6.96794e-114
5.97184e-110
2.2348e-106
5.02615e-103
8.45075e-100
1.29772e-96
1.90917e-93
2.40703e-90
2.34977e-87
1.70599e-84
9.3629e-82
4.07137e-79
1.45564e-76
4.279e-74
9.84854e-72
1.69785e-69
2.20135e-67
2.33254e-65
2.45055e-63
2.15162e-61
1.03639e-59
5.58399e-56
7.4878e-54
4.59195e-116
4.05562e-112
1.82077e-108
6.67346e-105
2.1644e-101
5.29866e-98
8.9536e-95
1.03825e-91
8.45558e-89
4.9807e-86
2.22929e-83
8.35409e-81
2.91763e-78
9.47872e-76
2.60415e-73
5.61159e-71
9.19955e-69
1.14446e-66
1.11096e-64
9.03273e-63
6.99652e-61
7.66363e-59
1.46203e-56
2.03378e-119
1.92532e-115
8.01721e-112
2.07412e-108
4.23204e-105
7.90639e-102
1.31092e-98
1.76612e-95
1.88739e-92
1.63087e-89
1.14703e-86
6.52793e-84
3.01915e-81
1.14314e-78
3.52538e-76
8.71613e-74
1.69731e-71
2.56746e-69
2.9913e-67
2.69052e-65
1.91702e-63
1.19576e-61
1.42888e-59
4.90043e-123
5.42442e-119
2.56647e-115
7.0651e-112
1.36459e-108
2.37764e-105
4.70944e-102
9.59772e-99
1.6153e-95
2.04466e-92
1.91855e-89
1.34724e-86
7.19739e-84
2.98184e-81
9.70969e-79
2.48293e-76
4.91914e-74
7.41593e-72
8.3772e-70
7.04331e-68
4.47092e-66
2.27206e-64
1.0854e-62
6.33469e-127
8.51164e-123
4.80213e-119
1.5396e-115
3.2568e-112
5.40032e-109
9.29385e-106
1.91196e-102
3.80638e-99
6.02612e-96
7.13098e-93
6.28028e-90
4.16724e-87
2.11659e-84
8.36207e-82
2.60268e-79
6.41055e-77
1.24315e-74
1.87864e-72
2.17466e-70
1.87468e-68
1.16639e-66
8.82206e-65
4.53929e-131
7.68673e-127
5.33923e-123
2.0694e-119
5.11985e-116
8.96508e-113
1.31754e-109
2.16891e-106
4.36154e-103
8.33278e-100
1.25727e-96
1.42181e-93
1.20325e-90
7.71566e-88
3.80658e-85
1.46737e-82
4.48067e-80
1.08427e-77
2.06786e-75
3.12571e-73
3.78932e-71
3.70707e-69
3.03941e-67
1.84889e-135
4.1038e-131
3.6191e-127
1.74439e-123
5.27265e-120
1.08527e-116
1.65439e-113
2.21628e-110
3.50095e-107
6.89239e-104
1.28305e-100
1.88321e-97
2.07707e-94
1.68859e-91
1.02747e-88
4.86503e-86
1.85576e-83
5.78651e-81
1.46236e-78
2.96125e-76
4.82968e-74
6.45582e-72
7.25243e-70
2.73912e-140
8.05799e-136
9.13786e-132
5.65195e-128
2.21262e-124
5.92985e-121
1.14518e-117
1.71528e-114
2.386e-111
4.0488e-108
8.27289e-105
1.54572e-101
2.25599e-98
2.47484e-95
2.01322e-92
1.23569e-89
5.94085e-87
2.31256e-84
7.40804e-82
1.95011e-79
4.20023e-77
7.45968e-75
1.08692e-72
3.19191e-145
1.40007e-140
2.14216e-136
1.70585e-132
8.41308e-129
2.82273e-125
6.78786e-122
1.21335e-118
1.72459e-115
2.33833e-112
3.9833e-109
8.27638e-106
1.56876e-102
2.31812e-99
2.57879e-96
2.14721e-93
1.36384e-90
6.83189e-88
2.78056e-85
9.22993e-83
2.47764e-80
5.36962e-78
1.01495e-75
1.64339e-150
1.47249e-145
3.41838e-141
3.72664e-137
2.36353e-133
9.81232e-130
2.87312e-126
6.22222e-123
1.0329e-119
1.4063e-116
1.89125e-113
3.31475e-110
7.17585e-107
1.41011e-103
2.08722e-100
2.33655e-97
2.02479e-94
1.37775e-91
7.48498e-89
3.30923e-86
1.18152e-83
3.36248e-81
7.673e-79
-2.67406e-156
6.38072e-151
2.898e-146
4.88774e-142
4.38618e-138
2.43468e-134
9.15241e-131
2.47832e-127
5.0444e-124
7.99e-121
1.05287e-117
1.39261e-114
2.48518e-111
5.65763e-108
1.17486e-104
1.78704e-101
2.06456e-98
1.90377e-95
1.41503e-92
8.49303e-90
4.15757e-87
1.64051e-84
5.14795e-82
-4.76728e-161
-1.70066e-157
9.99489e-152
3.21269e-147
4.50315e-143
3.59964e-139
1.8515e-135
6.60871e-132
1.72625e-128
3.42855e-125
5.35168e-122
7.00696e-119
9.28856e-116
1.71755e-112
4.20439e-109
9.43733e-106
1.52382e-102
9.18294e-100
1.31487e-96
1.44891e-93
1.04088e-90
5.77541e-88
2.58084e-85
-1.41832e-166
-6.90619e-162
2.22509e-158
8.53082e-153
2.2499e-148
2.83872e-144
2.13605e-140
1.06364e-136
3.74522e-133
9.77761e-130
1.96022e-126
3.1147e-123
4.17855e-120
5.71398e-117
1.12659e-113
3.04746e-110
7.57052e-107
1.34142e-103
1.82279e-100
2.04803e-97
1.91055e-94
1.4641e-91
9.2742e-89
-2.0026e-172
-1.43864e-167
-3.9986e-163
3.00447e-159
4.41328e-154
1.04773e-149
1.26379e-145
9.38035e-142
4.70504e-138
1.69423e-134
4.058e-131
6.2421e-128
6.24761e-125
7.62214e-122
1.96932e-118
6.48548e-115
2.19672e-111
6.27066e-108
4.19694e-105
1.03386e-102
1.07165e-100
2.71838e-95
2.42686e-92
-1.14444e-178
-1.28959e-173
-5.41629e-169
-1.17584e-164
1.41703e-160
1.42458e-155
3.27174e-151
3.97958e-147
3.04796e-143
1.60384e-139
6.13694e-136
1.77949e-132
4.03463e-129
7.36698e-126
1.15063e-122
1.85954e-119
4.63206e-116
1.67921e-112
5.57062e-109
1.31673e-105
2.40427e-102
3.66522e-99
3.73591e-96
-2.00826e-185
-3.90213e-180
-2.66558e-175
-9.0598e-171
-1.78929e-166
3.2312e-162
2.76499e-157
6.56175e-153
8.50086e-149
7.06109e-145
3.18348e-141
8.17996e-138
1.29072e-134
3.95052e-131
1.59038e-127
4.26451e-124
9.59613e-121
3.02574e-117
2.89988e-114
1.06162e-111
2.04667e-109
3.56453e-103
6.69422e-100
-6.9822e-193
-2.62971e-187
-3.25282e-182
-1.8895e-177
-6.14373e-173
-1.23712e-168
3.34078e-164
2.8156e-159
7.43032e-155
1.09568e-150
1.05145e-146
7.11436e-143
3.57618e-139
1.38757e-135
4.28173e-132
1.08173e-128
2.37218e-125
5.47689e-122
2.08247e-118
1.20358e-114
6.27789e-111
2.3491e-107
6.85811e-104
-2.08033e-201
-1.7672e-195
-4.60698e-190
-5.26275e-185
-3.17403e-180
-1.14315e-175
-2.65561e-171
1.11475e-166
1.067e-161
3.46433e-157
6.40193e-153
7.79759e-149
6.7661e-145
4.40301e-141
2.23167e-137
9.07522e-134
3.04704e-130
8.94893e-127
2.79385e-123
1.48078e-119
1.20852e-115
8.87131e-112
4.69786e-108
-5.69265e-212
-1.69152e-205
-1.17183e-199
-3.32352e-194
-4.64228e-189
-3.6534e-184
-1.79022e-179
-5.82213e-175
4.24743e-170
5.68433e-165
2.71899e-160
7.51708e-156
1.38531e-151
1.83735e-147
1.74573e-143
1.24324e-139
7.13586e-136
3.76075e-132
1.94177e-128
1.09863e-124
1.024e-120
1.41692e-116
1.74508e-112
1.37528e-228
-6.19137e-221
-2.47765e-214
-3.09448e-208
-1.77682e-202
-5.35741e-197
-9.48539e-192
-1.07719e-186
-8.30108e-182
1.62006e-176
5.20223e-171
6.17296e-166
4.29716e-161
2.02119e-156
6.93619e-152
1.44225e-147
2.44041e-143
3.90251e-139
6.25211e-135
9.88391e-131
1.67963e-126
4.66884e-122
1.92829e-117
9.76794e-25
1.94901e-25
3.39895e-25
3.94766e-25
2.93262e-21
2.40741e-21
8.83407e-22
7.67247e-23
4.59519e-19
1.37558e-19
1.12795e-20
1.65352e-22
8.0327e-19
7.00231e-20
1.68786e-21
6.0692e-24
1.35438e-19
6.01906e-21
3.04962e-23
1.19115e-26
4.63342e-19
1.51115e-20
4.75633e-23
7.642e-27
3.12828e-19
7.09777e-21
1.44733e-23
1.56339e-27
6.5018e-20
5.17074e-22
3.82931e-25
3.43302e-26
7.6202e-38
8.33523e-25
2.0118e-25
3.22308e-27
-4.90823e-39
5.21317e-28
2.44051e-27
9.49437e-29
3.01492e-39
3.20811e-27
4.62347e-28
2.04693e-29
2.55669e-41
3.12046e-33
1.03671e-29
8.88604e-31
4.00185e-45
2.1e-34
9.78339e-33
1.59977e-32
-2.99277e-48
5.29617e-36
4.65578e-35
2.14882e-34
-1.35761e-44
3.31304e-38
7.42309e-36
7.96003e-36
8.88671e-47
1.42367e-39
9.95961e-37
5.16907e-37
-4.43145e-51
1.66048e-41
7.87944e-38
2.26849e-38
-6.88334e-46
6.82769e-46
8.25166e-40
1.89694e-40
-2.69378e-47
2.98091e-46
4.59913e-42
3.44461e-41
1.7015e-46
1.94252e-44
6.41436e-43
4.46469e-42
2.27946e-48
1.05334e-45
4.45044e-44
2.66591e-43
4.64728e-51
1.46608e-47
1.28792e-45
7.17714e-45
2.25438e-51
8.97351e-50
1.40368e-47
9.95674e-47
2.66494e-54
1.68432e-52
8.01433e-50
7.49616e-49
3.97448e-57
4.00069e-55
2.65661e-52
3.33049e-51
1.58561e-60
4.14541e-57
5.07031e-55
9.05016e-54
1.88567e-62
3.51732e-60
5.73336e-58
1.53081e-56
3.36606e-65
3.22553e-63
4.04955e-61
1.64965e-59
7.41045e-68
3.89827e-66
2.65816e-64
1.25161e-62
1.36353e-70
5.89305e-69
2.59302e-67
9.09462e-66
1.72185e-73
8.33908e-72
3.00628e-70
8.45395e-69
1.59527e-76
9.49037e-75
3.57543e-73
9.28334e-72
1.2991e-79
9.04626e-78
3.9869e-76
1.09947e-74
9.22959e-83
7.98168e-81
4.04085e-79
1.26534e-77
4.80301e-86
5.94093e-84
3.69474e-82
1.27541e-80
1.8069e-89
3.22401e-87
2.76506e-85
1.07585e-83
3.27261e-93
4.51225e-91
1.55747e-88
7.49666e-87
8.28667e-97
2.38416e-94
6.72276e-92
4.30391e-90
1.6774e-100
7.74973e-98
2.27931e-95
2.03429e-93
1.94692e-104
1.66395e-101
6.13195e-99
7.90196e-97
1.55494e-108
2.26106e-105
1.29777e-102
2.51196e-100
7.07119e-113
2.19538e-109
2.12935e-106
6.48499e-104
3.31469e-26
7.12964e-29
9.55767e-31
8.09668e-33
1.0447e-36
3.8149e-38
7.13317e-40
5.48301e-42
1.42364e-44
1.24956e-48
7.9229e-51
3.23423e-53
7.66061e-56
1.08321e-58
1.13157e-61
1.19188e-64
1.07088e-67
6.09644e-71
1.57485e-74
2.79105e-24
3.60884e-27
9.9558e-29
1.53469e-30
2.53047e-34
6.21858e-36
1.14332e-37
8.97515e-40
2.40093e-42
7.49675e-46
4.96614e-48
1.9745e-50
4.4101e-53
5.2845e-56
3.42396e-59
1.5297e-62
5.75351e-66
1.96528e-69
5.74909e-73
3.97276e-24
3.69912e-27
2.55677e-28
5.26441e-31
5.56384e-33
2.2114e-35
5.86426e-38
6.52799e-40
6.11828e-42
3.63787e-44
1.30696e-46
2.79149e-49
3.54613e-52
2.96309e-55
2.12336e-58
1.32799e-61
6.65344e-65
4.80327e-68
2.75454e-71
1.49973e-25
4.02587e-27
7.14954e-30
1.09511e-31
8.75151e-34
6.32521e-36
8.40258e-38
1.00194e-39
8.63139e-42
5.95016e-44
3.67219e-46
1.97294e-48
8.27638e-51
2.49929e-53
5.15835e-56
6.90842e-59
5.57851e-62
2.40424e-65
4.2465e-69
8.50585e-28
7.42958e-29
8.33985e-31
5.73308e-33
4.25808e-35
6.74589e-37
9.84799e-39
9.75762e-41
7.20626e-43
4.5768e-45
2.65391e-47
1.29418e-49
4.78175e-52
1.25573e-54
2.24355e-57
2.60258e-60
1.84426e-63
7.27055e-67
1.33372e-70
1.0083e-28
2.58629e-30
3.95833e-32
7.80457e-34
2.08977e-35
4.41198e-37
6.17589e-39
5.90217e-41
4.14331e-43
2.30783e-45
1.05352e-47
3.78736e-50
1.00051e-52
1.8483e-55
2.36314e-58
2.16838e-61
1.46613e-64
7.18122e-68
1.83363e-71
2.73423e-29
1.10776e-31
1.00742e-32
5.52075e-34
1.78136e-35
3.58522e-37
4.81178e-39
4.6574e-41
3.55698e-43
2.27902e-45
1.21035e-47
5.0321e-50
1.56111e-52
3.52725e-55
5.73827e-58
6.62215e-61
5.2291e-64
2.59933e-67
6.42631e-71
6.56069e-28
4.86617e-31
4.29764e-32
2.01543e-33
5.4678e-35
9.1224e-37
9.63871e-39
6.56625e-41
2.93831e-43
9.03789e-46
2.18318e-48
5.17856e-51
1.25363e-53
2.56542e-56
3.92153e-59
4.29685e-62
3.24983e-65
1.57487e-68
3.91027e-72
6.12518e-29
3.38697e-31
1.81952e-32
4.55617e-34
7.73364e-36
1.04984e-37
1.1009e-39
8.61376e-42
5.3782e-44
2.92897e-46
1.39738e-48
5.47414e-51
1.65503e-53
3.71148e-56
5.97029e-59
6.59845e-62
4.68569e-65
1.89406e-68
3.25642e-72
1.41656e-30
6.7502e-32
2.30353e-33
1.61017e-35
4.43783e-37
7.27382e-39
7.86779e-41
6.45189e-43
4.46595e-45
2.599e-47
1.20555e-49
4.28435e-52
1.1397e-54
2.22274e-57
3.08974e-60
2.93341e-63
1.77337e-66
5.93982e-70
7.71873e-74
2.30342e-31
5.9705e-33
1.57484e-34
2.30213e-36
3.53619e-38
4.39462e-40
4.3064e-42
3.54001e-44
2.40214e-46
1.28234e-48
5.23554e-51
1.61228e-53
3.69776e-56
6.19715e-59
7.37032e-62
5.95051e-65
3.02694e-68
8.28663e-72
8.29293e-76
1.02874e-32
3.11458e-34
7.95123e-36
1.30841e-37
1.78708e-39
2.00801e-41
1.89078e-43
1.45583e-45
8.77582e-48
4.05064e-50
1.41941e-52
3.74797e-55
7.36091e-58
1.05285e-60
1.06289e-63
7.23121e-67
3.06307e-70
6.85452e-74
5.84591e-78
3.30978e-34
1.42438e-35
3.43478e-37
5.57012e-39
7.17696e-41
7.61022e-43
6.53427e-45
4.38606e-47
2.26005e-49
8.89116e-52
2.65964e-54
5.99594e-57
1.00301e-59
1.21632e-62
1.03445e-65
5.88361e-69
2.06521e-72
3.88166e-76
3.13821e-80
1.44632e-35
6.02213e-37
1.33128e-38
2.0484e-40
2.45557e-42
2.33314e-44
1.72614e-46
9.82211e-49
4.28679e-51
1.43284e-53
3.64677e-56
6.98607e-59
9.89582e-62
1.01104e-64
7.20136e-68
3.41379e-71
1.00394e-74
1.68132e-78
1.36757e-82
6.59704e-37
2.38322e-38
4.74844e-40
6.61978e-42
6.97817e-44
5.64484e-46
3.50656e-48
1.67642e-50
6.17585e-53
1.74768e-55
3.7669e-58
6.09922e-61
7.27782e-64
6.23924e-67
3.72054e-70
1.48627e-73
3.83845e-77
6.36197e-81
6.15724e-85
1.802e-38
4.27345e-40
1.38742e-41
1.81258e-43
1.60361e-45
1.07133e-47
5.51764e-50
2.20512e-52
6.83078e-55
1.62972e-57
2.96185e-60
4.03818e-63
4.05033e-66
2.91929e-69
1.47675e-72
5.19253e-76
1.31052e-79
2.4997e-83
2.87857e-87
1.81099e-40
7.94552e-43
3.64914e-43
4.23451e-45
3.06924e-47
1.66906e-49
6.99939e-52
2.28284e-54
5.78007e-57
1.16045e-59
1.77603e-62
2.03936e-65
1.7267e-68
1.06185e-71
4.75017e-75
1.61914e-78
4.56989e-82
1.02018e-85
1.21806e-89
3.07733e-42
4.85917e-44
7.40208e-45
9.3565e-47
5.47742e-49
2.401e-51
8.13786e-54
2.15161e-56
4.43384e-59
7.26203e-62
9.09346e-65
8.59119e-68
6.07078e-71
3.23345e-74
1.36438e-77
5.05365e-81
1.64445e-84
3.85158e-88
4.31198e-92
2.50939e-43
2.59375e-45
9.60076e-47
1.9304e-48
9.0119e-51
3.15196e-53
8.5659e-56
1.82587e-58
3.0622e-61
4.08988e-64
4.20921e-67
3.32047e-70
2.03129e-73
1.0119e-76
4.48226e-80
1.84974e-83
6.25343e-87
1.38006e-90
1.37531e-94
1.8567e-44
1.16759e-46
6.84159e-49
3.59433e-50
1.33157e-52
3.69486e-55
8.01938e-58
1.37597e-60
1.88674e-63
2.06857e-66
1.77809e-69
1.21355e-72
6.88957e-76
3.5292e-79
1.70893e-82
7.32858e-86
2.34986e-89
4.65419e-93
4.05031e-97
9.20228e-46
3.97804e-48
4.71254e-51
5.72497e-52
1.70397e-54
3.77059e-57
6.56313e-60
9.1147e-63
1.02994e-65
9.43541e-69
7.01448e-72
4.41549e-75
2.53547e-78
1.39469e-81
7.00675e-85
2.87608e-88
8.31506e-92
1.44577e-95
1.08954e-99
2.71899e-47
9.36048e-50
7.46768e-53
7.38297e-54
1.81926e-56
3.26642e-59
4.62416e-62
5.27872e-65
5.0075e-68
3.97115e-71
2.71247e-74
1.70613e-77
1.03772e-80
5.89257e-84
2.84356e-87
1.05901e-90
2.69194e-94
4.06445e-98
2.64141e-102
4.95625e-49
1.50778e-51
8.88282e-55
7.46314e-56
1.57889e-58
2.35829e-61
2.77782e-64
2.67876e-67
2.22071e-70
1.61896e-73
1.09672e-76
7.22586e-80
4.51856e-83
2.46614e-86
1.08214e-89
3.54681e-93
7.82256e-97
1.01922e-100
5.69592e-105
5.59646e-51
1.67769e-53
7.97692e-57
5.86658e-58
1.10296e-60
1.41221e-63
1.43012e-66
1.21781e-69
9.37392e-73
6.76546e-76
4.76493e-79
3.21446e-82
1.93525e-85
9.61381e-89
3.72758e-92
1.06017e-95
2.01518e-99
2.2576e-103
1.08206e-107
3.99941e-53
1.303e-55
5.47604e-59
3.60875e-60
6.22747e-63
7.09456e-66
6.47805e-69
5.20063e-72
3.98593e-75
2.98021e-78
2.14174e-81
1.39242e-84
7.65222e-88
3.35641e-91
1.13344e-94
2.77717e-98
4.52947e-102
4.3456e-106
1.77774e-110
1.874e-55
6.97142e-58
2.82692e-61
1.76479e-62
2.89743e-65
3.08781e-68
2.71416e-71
2.20713e-74
1.75348e-77
1.33469e-80
9.25295e-84
5.50982e-87
2.68269e-90
1.02386e-93
2.98798e-97
6.27596e-101
8.73887e-105
7.13561e-109
2.47268e-113
5.95439e-58
2.40826e-60
1.01033e-63
7.0458e-65
1.15593e-67
1.22963e-70
1.11296e-73
9.49682e-77
7.6839e-80
5.6542e-83
3.60642e-86
1.91185e-89
8.13246e-93
2.68236e-96
6.73394e-100
1.20602e-103
1.42373e-107
9.80977e-112
2.85415e-116
1.31384e-60
5.59151e-63
2.49304e-66
2.39285e-67
4.19122e-70
4.73203e-73
4.54419e-76
3.97989e-79
3.1287e-82
2.13258e-85
1.21938e-88
5.68048e-92
2.09714e-95
5.95104e-99
1.27988e-102
1.9414e-106
1.92682e-110
1.11065e-114
2.69737e-119
2.03517e-63
1.30452e-65
6.69754e-69
7.23835e-70
1.44793e-72
1.77701e-75
1.77123e-78
1.52223e-81
1.11961e-84
6.90891e-88
3.50114e-91
1.42498e-94
4.54594e-98
1.10423e-101
2.01967e-105
2.57224e-109
2.12731e-113
1.01986e-117
2.06932e-122
2.2161e-66
2.79837e-68
1.98571e-71
1.99188e-72
4.71938e-75
6.23695e-78
6.19766e-81
5.05476e-84
3.41013e-87
1.88644e-90
8.4312e-94
2.98704e-97
8.1949e-101
1.69297e-104
2.60457e-108
2.75808e-112
1.88811e-116
7.53639e-121
1.28374e-125
1.72177e-69
3.23218e-71
4.02169e-74
5.00742e-75
1.35833e-77
1.93708e-80
1.86327e-83
1.4179e-86
8.70027e-90
4.29575e-93
1.68738e-96
5.17999e-100
1.21414e-103
2.11718e-107
2.70796e-111
2.3663e-115
1.34131e-119
4.48653e-124
6.31566e-129
1.09253e-72
3.15328e-74
7.92568e-77
1.20544e-77
3.25833e-80
5.1322e-83
4.70707e-86
3.31783e-89
1.84455e-92
8.10135e-96
2.78355e-99
7.35347e-103
1.45953e-106
2.13089e-110
2.25027e-114
1.62434e-118
7.69397e-123
2.13391e-127
2.29462e-132
8.88462e-76
4.40931e-77
1.4487e-79
2.86652e-80
6.70259e-83
1.13983e-85
9.90005e-89
6.4402e-92
3.23375e-95
1.25774e-98
3.75482e-102
8.45983e-106
1.40763e-109
1.70922e-113
1.4915e-117
8.98534e-122
3.53701e-126
7.48862e-131
5.32085e-136
1.09975e-78
8.73038e-80
2.34335e-82
6.06446e-83
1.31828e-85
2.10907e-88
1.72787e-91
1.03375e-94
4.6672e-98
1.59753e-101
4.11002e-105
7.82406e-109
1.08265e-112
1.09228e-116
7.95555e-121
3.98954e-125
1.21622e-129
1.54554e-134
7.82977e-140
1.36844e-81
1.45978e-82
3.3808e-85
1.01827e-85
2.43886e-88
3.24815e-91
2.49985e-94
1.36874e-97
5.52073e-101
1.64993e-104
3.62718e-108
5.796e-112
6.64711e-116
5.6341e-120
3.41871e-124
1.33515e-128
2.73892e-133
6.32872e-139
1.87716e-143
1.42161e-84
1.8402e-85
4.46433e-88
1.36402e-88
3.59626e-91
4.16737e-94
2.99706e-97
1.49187e-100
5.33282e-104
1.3798e-107
2.57524e-111
3.45457e-115
3.20763e-119
2.36072e-123
1.12198e-127
3.01454e-132
4.66488e-137
7.43475e-142
5.40383e-147
1.20739e-87
1.80935e-88
5.28288e-91
1.54526e-91
4.02429e-94
4.46054e-97
2.97771e-100
1.3374e-103
4.20303e-107
9.35486e-111
1.48096e-114
1.67828e-118
1.03488e-122
7.60476e-127
2.54146e-131
5.60761e-136
1.43365e-140
2.36176e-145
1.84353e-150
8.38024e-91
1.44609e-91
5.28591e-94
1.48797e-94
3.79394e-97
3.99035e-100
2.45396e-103
9.873e-107
2.7128e-110
5.18788e-114
6.98998e-118
6.64506e-122
9.83307e-127
1.72682e-130
5.03994e-135
1.8333e-139
4.63377e-144
7.89789e-149
4.29076e-154
4.74616e-94
9.66719e-95
4.33657e-97
1.22472e-97
3.0257e-100
2.99182e-103
1.68172e-106
6.02639e-110
1.4448e-113
2.37557e-117
2.69568e-121
2.03934e-125
9.63277e-130
3.59067e-134
1.69467e-138
6.17501e-143
1.26205e-147
1.8022e-152
4.96681e-158
2.18318e-97
5.4391e-98
2.97668e-100
8.66436e-101
2.05116e-103
1.88773e-106
9.62557e-110
3.05732e-113
6.36786e-117
8.85866e-121
8.04419e-125
4.58077e-129
2.06802e-133
1.21554e-137
5.7971e-142
1.9748e-146
4.32511e-152
2.06149e-156
6.78987e-165
8.08354e-101
2.55899e-101
1.76756e-103
5.28977e-104
1.18797e-106
1.00677e-109
4.61642e-113
1.2867e-116
2.27669e-120
2.54575e-124
1.77367e-128
9.93367e-133
6.88027e-137
4.13235e-141
1.81157e-145
4.34913e-150
3.91759e-155
3.35619e-163
-3.27993e-180
2.37205e-104
1.01905e-104
9.17241e-107
2.78373e-107
5.89568e-110
4.5408e-113
1.84309e-116
4.38473e-120
6.26092e-124
5.44665e-128
3.80198e-132
3.21255e-136
2.28552e-140
1.25623e-144
3.90434e-149
4.81915e-154
7.77193e-162
-7.82714e-179
-7.81661e-184
)
;

boundaryField
{
    leftWall
    {
        type            zeroGradient;
    }
    rightWall
    {
        type            zeroGradient;
    }
    lowerWall
    {
        type            zeroGradient;
    }
    atmosphere
    {
        type            inletOutlet;
        inletValue      uniform 0;
        value           nonuniform List<scalar> 
46
(
0
0
0
0
0
0
0
0
0
0
0
0
0
0
0
0
0
0
0
0
0
0
0
7.07119e-113
2.19538e-109
2.12935e-106
6.48499e-104
2.37205e-104
1.01905e-104
9.17241e-107
2.78373e-107
5.89568e-110
4.5408e-113
1.84309e-116
4.38473e-120
6.26092e-124
5.44665e-128
3.80198e-132
3.21255e-136
2.28552e-140
1.25623e-144
3.90434e-149
4.81915e-154
7.77193e-162
-7.82714e-179
-7.81661e-184
)
;
    }
    defaultFaces
    {
        type            empty;
    }
}


// ************************************************************************* //
