/*--------------------------------*- C++ -*----------------------------------*\
| =========                 |                                                 |
| \\      /  F ield         | OpenFOAM: The Open Source CFD Toolbox           |
|  \\    /   O peration     | Version:  2312                                  |
|   \\  /    A nd           | Website:  www.openfoam.com                      |
|    \\/     M anipulation  |                                                 |
\*---------------------------------------------------------------------------*/
FoamFile
{
    version     2.0;
    format      ascii;
    arch        "LSB;label=32;scalar=64";
    class       volScalarField;
    location    "0.05";
    object      p;
}
// * * * * * * * * * * * * * * * * * * * * * * * * * * * * * * * * * * * * * //

dimensions      [1 -1 -2 0 0 0 0];

internalField   nonuniform List<scalar> 
2268
(
12533.4
12488.7
12395.2
12249.2
12044.6
11772
11417.7
10962.3
10377.9
9622.71
8652.11
7342.74
5185.07
2513.42
1440.38
1229
1202.66
1158.85
1114.64
1081.47
1058.17
1044.52
1040.31
11745
11700.5
11607.4
11462.1
11258.5
10987.1
10634.3
10180.2
9596.43
8838.05
7859.46
6517.64
4249.58
1860.83
1299.54
1197.91
1169.65
1124.58
1081.85
1049.04
1025.6
1011.68
1007.41
10965.1
10921.1
10829
10685.2
10483.8
10215.3
9866.15
9416.27
8836.55
8078.73
7098.76
5724.61
3369.42
1552.69
1216.76
1163.33
1130.79
1086.53
1045.95
1013.54
989.57
974.749
969.968
10193.6
10150.3
10059.7
9918.4
9720.42
9456.57
9113.32
8670.69
8099.07
7347.54
6375.75
4976.99
2611.7
1379.29
1154.91
1120.65
1087.62
1046.07
1007.61
975.333
950.238
933.622
927.514
9430.48
9388.09
9299.54
9161.5
8968.17
8710.64
8375.69
7943.63
7384.95
6647.47
5696.34
4289.53
2002.89
1225.22
1093.06
1073.16
1042.37
1004.23
967.508
934.875
907.828
888.088
879.049
8675.66
8634.41
8548.39
8414.41
8226.92
7977.41
7653.17
7235.21
6694.87
5980.62
5064.6
3673.65
1551.76
1085.18
1033.87
1024.39
996.737
961.807
926.267
892.679
862.626
837.802
822.565
7928.83
7888.93
7805.88
7676.67
7496.05
7256
6944.57
6543.85
6026.77
5344.59
4477.42
3130.46
1249.41
974.936
979.359
976.353
951.846
919.454
884.486
849.306
815.041
782.376
754.087
7188.45
7149.99
7070.11
6945.96
6772.62
6542.58
6244.74
5862.54
5371.03
4726.39
3914.84
2641.48
1065.01
906.37
931.112
930.419
908.368
877.677
842.728
805.412
765.775
721.742
665.91
1.82011
1.97657
2.11639
2.21441
2.26005
2.26435
2.24181
2.20451
2.16071
2.11564
2.07242
2.03279
1.99767
1.96748
1.94241
1.92249
1.9077
1.89797
1.89323
1.73905
1.91819
2.06683
2.16633
2.20934
2.21057
2.18566
2.14684
2.10212
2.05651
2.01297
1.97317
1.93795
1.90772
1.88262
1.86269
1.8479
1.83817
1.83344
1.6365
1.86018
2.0285
2.12986
2.16675
2.16161
2.132
2.09021
2.04367
1.99699
1.95286
1.91272
1.87732
1.84699
1.82185
1.80191
1.78711
1.77739
1.77266
1.51478
1.79723
2.00449
2.10605
2.13195
2.11695
2.0805
2.03438
1.98523
1.93703
1.89203
1.85141
1.81575
1.7853
1.7601
1.74014
1.72533
1.71561
1.71089
1.36974
1.72593
1.99984
2.09614
2.10426
2.07577
2.03062
1.97904
1.92661
1.87651
1.83043
1.78922
1.75325
1.72264
1.69737
1.67738
1.66257
1.65286
1.64814
1.2191
1.63071
2.02382
2.10044
2.08221
2.03722
1.98171
1.92377
1.86758
1.81531
1.76801
1.72613
1.6898
1.65901
1.63366
1.61365
1.59884
1.58913
1.58441
1.00149
1.57392
2.10335
2.11775
2.06314
1.99964
1.93286
1.86801
1.80782
1.75326
1.70467
1.66208
1.62537
1.5944
1.56898
1.54895
1.53414
1.52444
1.51973
-0.381257
1.74781
2.22465
2.14319
2.04362
1.96148
1.883
1.81115
1.74698
1.69017
1.64031
1.59702
1.55995
1.52881
1.50333
1.48328
1.46849
1.4588
1.4541
6042.01
6006.01
5931.54
5815.99
5654.99
5441.95
5167.26
4816.97
4370.63
3795.41
3074.2
1975.06
933.123
843.67
864.918
862.727
842.811
813.531
777.856
736.421
686.243
615.499
446.843
4516.33
4484.55
4419.19
4318.17
4178.16
3994.36
3760.22
3467.09
3104.13
2655.68
2122.07
1369.15
817.227
787.633
790.188
781.814
761.406
731.959
694.791
649.614
593.582
521.095
423.088
3034.34
3008.14
2954.86
2873.2
2761.2
2616.27
2435.29
2214.93
1953.92
1653.43
1339.3
993.535
737.468
734.352
723.676
709.422
687.272
656.931
618.506
571.424
513.758
441.864
349.215
1823.82
1810.95
1784.36
1743.36
1686.86
1613.4
1520.98
1407.06
1269.14
1103.89
921.358
739.028
682.774
668.468
659.176
642.764
618.73
587.154
547.625
499.256
440.131
367.083
275.127
1103.02
1096.61
1083.26
1062.81
1035.07
999.768
956.646
905.573
846.834
781.958
716.632
654.191
606.276
605.833
594.99
578.494
553.9
521.722
481.869
433.314
374.213
302.122
213.05
994.461
988.307
975.663
956.479
930.674
898.19
859.068
813.586
762.509
707.507
652.637
598.355
563.75
558.135
541.133
520.2
494.069
461.652
422.172
374.53
317.096
248.204
164.577
895.914
890.401
879.091
861.986
839.101
810.512
776.421
737.264
693.87
647.629
601.174
553.2
521.4
505.718
487.011
464.864
438.402
406.501
368.224
322.551
268.146
204.132
127.702
801.965
797.022
786.935
771.742
751.514
726.394
696.647
662.728
625.357
585.565
545.111
502.069
471.779
453.848
434.957
412.816
386.83
356.089
319.716
276.835
226.397
168.142
99.1412
712.488
708.105
699.2
685.83
668.095
646.162
620.3
590.916
558.583
524.026
488.471
449.6
421.126
403.46
385.131
363.768
338.959
309.982
276.103
236.625
190.751
138.714
77.3842
627.032
623.185
615.399
603.738
588.311
569.283
546.899
521.496
493.511
463.436
432.155
397.129
371.035
354.699
337.52
317.511
294.418
267.69
236.753
201.079
160.074
114.328
60.3863
545.148
541.808
535.069
524.998
511.697
495.32
476.075
454.233
430.118
404.057
376.705
345.473
322.17
307.644
292.016
273.781
252.807
228.69
201.003
169.366
133.334
93.7211
46.6701
466.39
463.526
457.763
449.164
437.823
423.874
407.492
388.89
368.308
345.964
322.357
294.99
274.731
262.271
248.459
232.29
213.716
192.453
168.205
140.713
109.644
75.9334
35.3841
390.366
387.943
383.085
375.849
366.319
354.608
340.863
325.256
307.967
289.15
269.191
245.807
228.763
218.508
206.684
192.765
176.761
158.496
137.784
114.462
88.2892
60.2422
25.9535
316.818
314.81
310.799
304.835
296.99
287.362
276.076
263.276
249.112
233.709
217.35
198.071
184.342
176.335
166.595
155.021
141.673
126.471
109.325
90.1592
68.8114
46.18
17.9744
245.424
243.815
240.603
235.831
229.559
221.874
212.881
202.713
191.514
179.428
166.65
151.656
141.519
135.715
128.07
118.848
108.142
95.9657
82.3183
67.2068
50.5616
33.0847
10.9639
174.939
173.702
171.23
167.554
162.727
156.82
149.922
142.152
133.661
124.678
115.384
105.193
99.946
96.2541
90.5619
83.5324
75.298
65.9715
55.6198
44.318
32.1133
19.5192
4.33305
105.816
104.937
103.182
100.579
97.1721
93.0184
88.1881
82.7684
76.872
70.7564
64.6577
59.6156
60.3718
58.5764
54.427
49.335
43.4845
37.0455
30.092
22.6933
14.9298
7.22034
-0.232977
47.633
47.1607
46.2244
44.8508
43.0722
40.931
38.4755
35.751
32.7697
29.5972
26.1936
24.7486
28.1019
27.4889
24.1224
20.9168
17.7604
14.6359
11.5382
8.47951
5.49748
3.06234
2.36557
24.1927
24.0503
23.7692
23.3527
22.8064
22.1373
21.354
20.4616
19.4491
18.2361
15.918
12.2674
15.4837
12.9993
10.4327
9.19029
8.16005
7.11587
6.03838
4.93312
3.61537
1.26536
-1.99249
-4.13687
-4.13402
-4.13389
-4.13321
-4.13247
-4.13118
-4.12818
-4.12187
-4.1104
-4.09176
-4.06413
-4.02345
-3.96701
-3.90792
-3.86497
-3.83519
-3.81214
-3.79214
-3.77422
-3.75873
-3.74843
-3.76671
-3.85611
-4.16927
-4.16851
-4.16783
-4.16669
-4.16494
-4.16213
-4.15739
-4.14956
-4.13738
-4.11934
-4.09402
-4.05721
-4.01049
-3.96514
-3.92836
-3.89802
-3.87144
-3.84632
-3.82056
-3.79092
-3.7577
-3.73975
-3.74797
-4.19135
-4.19053
-4.18903
-4.18657
-4.18288
-4.17758
-4.17002
-4.15946
-4.14517
-4.12627
-4.10176
-4.07097
-4.0352
-3.99827
-3.96334
-3.93069
-3.89913
-3.86682
-3.83143
-3.78979
-3.74109
-3.6877
-3.61083
-4.22711
-4.22608
-4.22397
-4.2205
-4.21539
-4.2083
-4.19879
-4.18638
-4.17072
-4.15148
-4.12827
-4.1008
-4.06992
-4.03696
-4.00316
-3.96883
-3.93331
-3.89533
-3.85321
-3.80505
-3.74965
-3.68396
-3.5944
-4.27436
-4.27312
-4.27055
-4.26639
-4.2604
-4.25228
-4.24173
-4.22847
-4.21236
-4.19328
-4.17108
-4.14562
-4.1172
-4.08628
-4.05331
-4.01836
-3.98098
-3.94022
-3.89481
-3.8433
-3.78407
-3.71376
-3.62552
-4.33038
-4.32899
-4.32612
-4.32156
-4.31509
-4.30649
-4.29553
-4.28205
-4.26597
-4.24726
-4.22584
-4.20162
-4.17465
-4.14503
-4.11285
-4.07804
-4.04021
-3.99868
-3.95254
-3.90074
-3.84194
-3.77408
-3.6944
-4.39269
-4.3912
-4.38816
-4.38339
-4.37671
-4.36796
-4.35696
-4.3436
-4.32782
-4.30961
-4.28891
-4.26565
-4.23976
-4.21123
-4.17999
-4.14589
-4.10862
-4.06766
-4.02238
-3.97205
-3.91578
-3.85263
-3.78181
-4.45954
-4.45802
-4.45489
-4.45004
-4.44333
-4.43462
-4.42379
-4.41075
-4.39544
-4.37784
-4.35789
-4.33554
-4.31069
-4.28327
-4.25318
-4.22024
-4.18421
-4.14473
-4.10136
-4.05364
-4.00112
-3.94353
-3.88091
-4.52989
-4.52835
-4.5252
-4.52037
-4.51374
-4.5052
-4.49468
-4.48208
-4.46735
-4.45045
-4.43135
-4.40996
-4.38622
-4.36004
-4.33131
-4.29988
-4.26556
-4.22813
-4.1873
-4.14283
-4.09456
-4.04258
-3.98723
-4.60306
-4.60153
-4.59843
-4.59368
-4.58722
-4.57896
-4.56883
-4.55675
-4.54269
-4.5266
-4.50842
-4.4881
-4.46558
-4.44078
-4.4136
-4.38394
-4.35166
-4.31662
-4.27869
-4.23776
-4.19384
-4.14718
-4.09821
-4.67864
-4.67715
-4.67413
-4.66954
-4.66332
-4.6554
-4.64574
-4.63427
-4.62095
-4.60573
-4.58857
-4.56942
-4.54823
-4.52494
-4.49947
-4.47176
-4.44172
-4.40929
-4.37442
-4.33709
-4.29743
-4.25572
-4.2124
-4.75634
-4.75492
-4.75202
-4.74763
-4.74171
-4.7342
-4.72507
-4.71427
-4.70175
-4.68748
-4.67142
-4.65353
-4.63376
-4.61209
-4.58845
-4.56281
-4.53514
-4.50541
-4.47364
-4.43988
-4.40428
-4.36714
-4.32884
-4.83594
-4.83458
-4.83184
-4.8277
-4.82213
-4.81509
-4.80655
-4.79646
-4.78481
-4.77155
-4.75665
-4.74009
-4.72183
-4.70185
-4.68012
-4.65664
-4.63139
-4.60439
-4.57569
-4.54538
-4.51363
-4.48071
-4.44695
-4.91723
-4.91596
-4.9134
-4.90955
-4.90436
-4.89783
-4.88993
-4.88062
-4.86987
-4.85767
-4.84399
-4.82882
-4.81212
-4.79389
-4.77413
-4.75284
-4.73003
-4.70575
-4.68006
-4.65307
-4.62495
-4.59593
-4.5663
-5.00003
-4.99887
-4.99651
-4.99297
-4.98821
-4.98223
-4.975
-4.9665
-4.95671
-4.94562
-4.9332
-4.91945
-4.90436
-4.88792
-4.87015
-4.85106
-4.83069
-4.80909
-4.78633
-4.76252
-4.73782
-4.71244
-4.68661
-5.08419
-5.08313
-5.081
-5.07779
-5.07349
-5.06808
-5.06156
-5.05391
-5.04511
-5.03516
-5.02404
-5.01175
-4.99829
-4.98367
-4.9679
-4.95101
-4.93305
-4.91407
-4.89414
-4.87339
-4.85194
-4.82997
-4.80767
-5.16955
-5.1686
-5.1667
-5.16384
-5.16002
-5.15522
-5.14943
-5.14265
-5.13487
-5.12609
-5.11629
-5.10548
-5.09367
-5.08088
-5.06711
-5.05241
-5.03683
-5.02041
-5.00324
-4.98542
-4.96705
-4.94831
-4.92933
-5.25594
-5.25512
-5.25346
-5.25097
-5.24763
-5.24346
-5.23843
-5.23255
-5.22581
-5.21821
-5.20975
-5.20045
-5.1903
-5.17933
-5.16756
-5.15503
-5.14178
-5.12788
-5.11338
-5.09838
-5.08298
-5.06731
-5.05147
-5.34323
-5.34253
-5.34112
-5.33901
-5.33618
-5.33264
-5.32839
-5.32342
-5.31774
-5.31135
-5.30425
-5.29645
-5.28797
-5.27882
-5.26904
-5.25866
-5.24772
-5.23627
-5.22438
-5.21212
-5.19958
-5.18684
-5.17402
-5.43128
-5.4307
-5.42955
-5.42782
-5.42552
-5.42263
-5.41916
-5.41513
-5.41051
-5.40533
-5.3996
-5.39331
-5.3865
-5.37917
-5.37137
-5.36311
-5.35444
-5.34541
-5.33607
-5.32648
-5.3167
-5.30682
-5.2969
-5.52
-5.51956
-5.51867
-5.51733
-5.51555
-5.51332
-5.51065
-5.50754
-5.504
-5.50004
-5.49567
-5.4909
-5.48574
-5.48023
-5.47438
-5.46823
-5.4618
-5.45515
-5.44831
-5.44133
-5.43426
-5.42716
-5.42007
-5.60915
-5.60885
-5.60823
-5.60729
-5.60604
-5.60447
-5.60261
-5.60044
-5.59799
-5.59526
-5.59226
-5.589
-5.58551
-5.5818
-5.5779
-5.57384
-5.56964
-5.56534
-5.56097
-5.55656
-5.55216
-5.5478
-5.54349
-5.69755
-5.69742
-5.69708
-5.69657
-5.69588
-5.69503
-5.69402
-5.69286
-5.69155
-5.69011
-5.68856
-5.68689
-5.68513
-5.68331
-5.68142
-5.67951
-5.67759
-5.67568
-5.67382
-5.67201
-5.67029
-5.66866
-5.66713
126.339
57.6252
56.1912
43.9515
299.548
215.257
145.061
79.3913
235.322
155.528
81.1737
26.5096
175.46
99.3704
29.7652
4.4132
118.59
45.8955
1.91485
1.71531
76.7901
18.3991
2.02817
1.71336
48.075
5.40888
1.49096
1.24832
29.063
0.778185
0.586185
0.676047
18.1481
0.54261
0.447448
0.430418
11.066
0.375476
0.29936
0.246572
6.28513
0.140899
0.065903
0.0265273
3.13746
-0.100449
-0.187142
-0.211559
1.15432
-0.317237
-0.433309
-0.453011
-0.0444717
-0.525344
-0.667336
-0.700487
-0.928021
-1.00416
-0.947886
-0.980632
-1.31479
-1.24474
-1.20916
-1.23107
-1.48699
-1.3343
-1.40148
-1.47048
-2.88737
-1.89502
-1.78586
-1.85687
-2.35544
-2.62961
-2.56806
-2.39632
-4.06432
-4.10835
-3.74197
-3.18929
-3.71234
-3.59905
-3.43018
-3.20515
-3.50151
-3.41164
-3.30417
-3.18904
-3.49976
-3.42925
-3.35105
-3.26914
-3.54443
-3.48996
-3.43288
-3.37327
-3.62631
-3.58125
-3.5353
-3.48832
-3.72405
-3.68634
-3.64821
-3.60955
-3.8313
-3.79911
-3.76673
-3.73407
-3.9442
-3.91636
-3.88845
-3.86039
-4.06064
-4.03639
-4.01211
-3.98776
-4.17945
-4.15822
-4.13699
-4.11574
-4.29991
-4.28129
-4.26269
-4.2441
-4.42157
-4.40524
-4.38896
-4.3727
-4.54411
-4.52985
-4.51563
-4.50145
-4.66733
-4.65495
-4.64261
-4.63031
-4.79107
-4.78042
-4.76981
-4.75924
-4.91523
-4.90619
-4.89719
-4.88824
-5.03973
-5.03222
-5.02473
-5.01729
-5.16453
-5.15846
-5.15242
-5.14642
-5.28958
-5.2849
-5.28025
-5.27564
-5.41485
-5.41153
-5.40822
-5.40496
-5.54034
-5.53835
-5.53637
-5.53442
-5.66605
-5.66538
-5.66472
-5.66407
3.5815
2.33823
2.33017
2.16126
2.00459
1.89781
1.80171
1.71956
1.64964
1.58957
1.5379
1.49363
1.45607
1.42472
1.39917
1.37913
1.36437
1.35472
1.35003
4.29246
2.45614
2.35456
2.17548
1.91482
1.78634
1.67416
1.58312
1.5082
1.44535
1.39221
1.34726
1.30947
1.27814
1.25272
1.23286
1.21826
1.20872
1.20409
2.91824
2.1691
2.10591
1.93618
1.76891
1.63806
1.52438
1.43201
1.35599
1.2926
1.23936
1.19461
1.15718
1.12627
1.10129
1.08181
1.06751
1.05818
1.05366
1.99269
1.9204
1.84118
1.70203
1.58224
1.45866
1.35405
1.2664
1.19294
1.13126
1.07937
1.03577
0.999356
0.969328
0.945094
0.926218
0.912382
0.903358
0.898981
1.79008
1.62182
1.48368
1.47413
1.36604
1.26092
1.16865
1.08855
1.02003
0.961815
0.912506
0.870931
0.836155
0.80746
0.784299
0.766261
0.753041
0.744422
0.740242
1.50557
1.26599
1.27916
1.23921
1.14355
1.05399
0.972981
0.901165
0.838768
0.785119
0.739307
0.700472
0.667876
0.640921
0.619134
0.602153
0.589701
0.581581
0.577643
1.14151
1.05715
1.06878
1.00254
0.918102
0.840764
0.769879
0.706398
0.650625
0.602182
0.560481
0.524914
0.494928
0.470052
0.4499
0.434169
0.422622
0.415088
0.411432
0.801635
0.811341
0.836883
0.761123
0.688499
0.622264
0.561063
0.505846
0.456889
0.413991
0.376782
0.344848
0.317791
0.295259
0.276954
0.262633
0.252107
0.245233
0.241896
0.456978
0.577215
0.585013
0.516516
0.455705
0.399811
0.347911
0.300783
0.258662
0.221459
0.188957
0.160889
0.136982
0.116987
0.100689
0.087906
0.0784927
0.0723392
0.0693491
0.200902
0.33254
0.325281
0.269921
0.220583
0.174501
0.131522
0.0922501
0.0568848
0.0254124
-0.00228042
-0.0263516
-0.0469698
-0.0642959
-0.0784739
-0.0896274
-0.0978592
-0.103247
-0.105866
-0.0241218
0.079704
0.0641326
0.0223032
-0.0162078
-0.052865
-0.0872564
-0.118904
-0.147633
-0.173407
-0.196265
-0.216279
-0.233534
-0.248115
-0.260102
-0.269567
-0.276571
-0.281162
-0.283396
-0.243166
-0.177365
-0.195832
-0.225684
-0.254127
-0.281678
-0.307745
-0.331966
-0.354184
-0.374327
-0.392373
-0.408323
-0.422191
-0.433995
-0.443759
-0.451505
-0.457257
-0.461035
-0.462874
-0.467496
-0.437144
-0.454352
-0.473825
-0.492778
-0.511438
-0.52936
-0.546303
-0.562125
-0.576722
-0.590014
-0.601936
-0.612435
-0.621471
-0.629011
-0.635036
-0.639531
-0.642491
-0.643933
-0.705938
-0.700424
-0.712424
-0.722215
-0.731855
-0.741684
-0.751546
-0.761314
-0.770848
-0.78
-0.788626
-0.796591
-0.803778
-0.810086
-0.815434
-0.819757
-0.823011
-0.825161
-0.826208
-0.968691
-0.968641
-0.97114
-0.970983
-0.97106
-0.971932
-0.973729
-0.976394
-0.97975
-0.983582
-0.987662
-0.991779
-0.995745
-0.9994
-1.00261
-1.00528
-1.00732
-1.00868
-1.00935
-1.2397
-1.23765
-1.23077
-1.22009
-1.21001
-1.20161
-1.19527
-1.1909
-1.18821
-1.18689
-1.18659
-1.18701
-1.18788
-1.18899
-1.19016
-1.19124
-1.19212
-1.19272
-1.19301
-1.52465
-1.51073
-1.4933
-1.46996
-1.44832
-1.43005
-1.41543
-1.40412
-1.39559
-1.38935
-1.38489
-1.3818
-1.37975
-1.37845
-1.37768
-1.37728
-1.37706
-1.37693
-1.37687
-1.84898
-1.80652
-1.76318
-1.7206
-1.68509
-1.65628
-1.63337
-1.61534
-1.60127
-1.5904
-1.58206
-1.57572
-1.57096
-1.56742
-1.56482
-1.5631
-1.56183
-1.56103
-1.56063
-2.2647
-2.12402
-2.03635
-1.96898
-1.9182
-1.87883
-1.84801
-1.82374
-1.80459
-1.7895
-1.77764
-1.76835
-1.76113
-1.75557
-1.75136
-1.7483
-1.74611
-1.74471
-1.74402
-2.68633
-2.43594
-2.29906
-2.20852
-2.14419
-2.09565
-2.05802
-2.02838
-2.00486
-1.98611
-1.97118
-1.95931
-1.94992
-1.94258
-1.93693
-1.93271
-1.9297
-1.92776
-1.9268
-2.90347
-2.67842
-2.53181
-2.43168
-2.35948
-2.30478
-2.26219
-2.22845
-2.20146
-2.17976
-2.1623
-2.14826
-2.13705
-2.12818
-2.12129
-2.11609
-2.11236
-2.10994
-2.10875
-3.01846
-2.85807
-2.73117
-2.63542
-2.56222
-2.50509
-2.45978
-2.42341
-2.39399
-2.3701
-2.35069
-2.33495
-2.32227
-2.31216
-2.30424
-2.29822
-2.29389
-2.29108
-2.28969
-3.14498
-3.01767
-2.91025
-2.8234
-2.75335
-2.6967
-2.65067
-2.61307
-2.58224
-2.55693
-2.53617
-2.51919
-2.5054
-2.49434
-2.48562
-2.47896
-2.47414
-2.47101
-2.46947
-3.2788
-3.17197
-3.07896
-3.00062
-2.93512
-2.88059
-2.83526
-2.79757
-2.76624
-2.74022
-2.71866
-2.70089
-2.68635
-2.67461
-2.66531
-2.65817
-2.653
-2.64963
-2.64797
-3.41293
-3.32196
-3.24066
-3.17009
-3.10952
-3.05793
-3.01421
-2.97728
-2.94616
-2.92003
-2.89817
-2.88002
-2.86506
-2.85291
-2.84324
-2.83579
-2.83037
-2.82684
-2.82511
-3.54692
-3.46847
-3.39703
-3.33357
-3.27799
-3.22976
-3.18822
-3.15262
-3.12227
-3.09652
-3.0748
-3.05661
-3.04154
-3.02922
-3.01938
-3.01177
-3.00622
-3.00259
-3.00081
-3.6808
-3.61247
-3.54937
-3.49237
-3.44163
-3.39695
-3.35792
-3.32407
-3.2949
-3.26992
-3.24868
-3.23077
-3.21583
-3.20357
-3.19372
-3.18609
-3.18051
-3.17686
-3.17506
-3.81443
-3.75452
-3.69861
-3.64746
-3.60134
-3.56022
-3.5239
-3.49206
-3.46437
-3.44046
-3.41998
-3.40259
-3.38802
-3.376
-3.36631
-3.35877
-3.35325
-3.34963
-3.34785
-3.94774
-3.89501
-3.84539
-3.79956
-3.75781
-3.72021
-3.68667
-3.65701
-3.63101
-3.60839
-3.58888
-3.57223
-3.5582
-3.54658
-3.53718
-3.52985
-3.52447
-3.52093
-3.5192
-4.08074
-4.03423
-3.99021
-3.94923
-3.91159
-3.87741
-3.84668
-3.8193
-3.79512
-3.77395
-3.75559
-3.73984
-3.72651
-3.71542
-3.70642
-3.69939
-3.69421
-3.69081
-3.68914
-4.21342
-4.17242
-4.13343
-4.09691
-4.06313
-4.03226
-4.00431
-3.97926
-3.95699
-3.93739
-3.9203
-3.90558
-3.89306
-3.88262
-3.87412
-3.86746
-3.86254
-3.85931
-3.85772
-4.34583
-4.30977
-4.27534
-4.24293
-4.21281
-4.18512
-4.15991
-4.13719
-4.11689
-4.09893
-4.08321
-4.06961
-4.058
-4.04829
-4.04037
-4.03414
-4.02954
-4.02652
-4.02503
-4.478
-4.44641
-4.41617
-4.3876
-4.36093
-4.33629
-4.31377
-4.29337
-4.27506
-4.2588
-4.24451
-4.2321
-4.22148
-4.21257
-4.20528
-4.19954
-4.1953
-4.19251
-4.19113
-4.60996
-4.58248
-4.55612
-4.53115
-4.50775
-4.48605
-4.46614
-4.44804
-4.43174
-4.4172
-4.40438
-4.39322
-4.38364
-4.37558
-4.36897
-4.36377
-4.35991
-4.35737
-4.35612
-4.74176
-4.71809
-4.69536
-4.67377
-4.65349
-4.63463
-4.61726
-4.60142
-4.58712
-4.57432
-4.563
-4.55312
-4.54462
-4.53746
-4.53157
-4.52693
-4.52349
-4.52122
-4.52009
-4.87342
-4.85334
-4.83402
-4.81564
-4.79835
-4.78222
-4.76734
-4.75372
-4.7414
-4.73034
-4.72054
-4.71197
-4.70458
-4.69833
-4.6932
-4.68915
-4.68613
-4.68415
-4.68316
-5.00499
-4.9883
-4.97223
-4.95692
-4.94249
-4.92902
-4.91655
-4.90513
-4.89476
-4.88544
-4.87717
-4.86991
-4.86365
-4.85835
-4.85399
-4.85054
-4.84797
-4.84628
-4.84544
-5.13651
-5.12305
-5.11009
-5.09774
-5.08608
-5.07518
-5.06508
-5.0558
-5.04737
-5.03979
-5.03304
-5.02711
-5.02198
-5.01764
-5.01406
-5.01123
-5.00913
-5.00773
-5.00704
-5.26802
-5.25768
-5.24772
-5.23823
-5.22926
-5.22086
-5.21308
-5.20592
-5.1994
-5.19353
-5.1883
-5.1837
-5.17972
-5.17634
-5.17356
-5.17135
-5.16971
-5.16862
-5.16809
-5.39957
-5.39226
-5.38522
-5.3785
-5.37216
-5.36622
-5.3607
-5.35562
-5.351
-5.34683
-5.34311
-5.33983
-5.337
-5.33459
-5.3326
-5.33103
-5.32985
-5.32908
-5.32869
-5.53122
-5.52686
-5.52267
-5.51868
-5.51491
-5.51137
-5.50809
-5.50507
-5.50231
-5.49983
-5.49761
-5.49565
-5.49396
-5.49252
-5.49133
-5.49038
-5.48968
-5.48921
-5.48898
-5.66301
-5.66157
-5.66019
-5.65888
-5.65764
-5.65648
-5.6554
-5.6544
-5.6535
-5.65268
-5.65194
-5.6513
-5.65074
-5.65026
-5.64987
-5.64955
-5.64932
-5.64917
-5.64909
)
;

boundaryField
{
    leftWall
    {
        type            calculated;
        value           nonuniform List<scalar> 
50
(
12533.4
11745
10965.1
10193.6
9430.48
8675.66
7928.83
7188.45
6042.01
4516.33
3034.34
1823.82
1103.02
994.461
895.914
801.965
712.488
627.032
545.148
466.39
390.366
316.818
245.424
174.939
105.816
47.633
24.1927
-4.13687
-4.16927
-4.19135
-4.22711
-4.27436
-4.33038
-4.39269
-4.45954
-4.52989
-4.60306
-4.67864
-4.75634
-4.83594
-4.91723
-5.00003
-5.08419
-5.16955
-5.25594
-5.34323
-5.43128
-5.52
-5.60915
-5.69755
)
;
    }
    rightWall
    {
        type            calculated;
        value           nonuniform List<scalar> 
50
(
1.89323
1.83344
1.77266
1.71089
1.64814
1.58441
1.51973
1.4541
1.35003
1.20409
1.05366
0.898981
0.740242
0.577643
0.411432
0.241896
0.0693491
-0.105866
-0.283396
-0.462874
-0.643933
-0.826208
-1.00935
-1.19301
-1.37687
-1.56063
-1.74402
-1.9268
-2.10875
-2.28969
-2.46947
-2.64797
-2.82511
-3.00081
-3.17506
-3.34785
-3.5192
-3.68914
-3.85772
-4.02503
-4.19113
-4.35612
-4.52009
-4.68316
-4.84544
-5.00704
-5.16809
-5.32869
-5.48898
-5.64909
)
;
    }
    lowerWall
    {
        type            calculated;
        value           nonuniform List<scalar> 
62
(
12931.5
12886.8
12793.3
12647.3
12442.7
12170.1
11815.8
11360.4
10776.1
10020.9
9050.26
7740.89
5583.22
2830.24
1486.99
1243.71
1217.37
1173.57
1129.35
1096.18
1072.88
1059.24
1055.02
1040.31
1007.41
969.968
927.514
879.049
822.565
754.087
665.91
157.638
88.9238
87.4899
75.2501
1.82011
1.73905
1.6365
1.51478
1.36974
1.2191
1.00149
-0.381257
1.84954
2.006
2.14582
2.24384
2.28948
2.29378
2.27124
2.23394
2.19014
2.14507
2.10185
2.06222
2.0271
1.99691
1.97184
1.95192
1.93712
1.9274
1.92266
)
;
    }
    atmosphere
    {
        type            calculated;
        value           nonuniform List<scalar> 
46
(
-5.74084
-5.74084
-5.74065
-5.74037
-5.74
-5.73954
-5.73901
-5.7384
-5.73772
-5.737
-5.73622
-5.73542
-5.7346
-5.73377
-5.73296
-5.73218
-5.73145
-5.73079
-5.73021
-5.72973
-5.72937
-5.72914
-5.72904
-5.72904
-5.72904
-5.72904
-5.72904
-5.72904
-5.72904
-5.72904
-5.72904
-5.72904
-5.72904
-5.72904
-5.72904
-5.72904
-5.72904
-5.72904
-5.72904
-5.72904
-5.72904
-5.72904
-5.72904
-5.72904
-5.72904
-5.72904
)
;
    }
    defaultFaces
    {
        type            empty;
    }
}


// ************************************************************************* //
