/*--------------------------------*- C++ -*----------------------------------*\
| =========                 |                                                 |
| \\      /  F ield         | OpenFOAM: The Open Source CFD Toolbox           |
|  \\    /   O peration     | Version:  2312                                  |
|   \\  /    A nd           | Website:  www.openfoam.com                      |
|    \\/     M anipulation  |                                                 |
\*---------------------------------------------------------------------------*/
FoamFile
{
    version     2.0;
    format      ascii;
    arch        "LSB;label=32;scalar=64";
    class       volScalarField;
    location    "0.05";
    object      p_rgh;
}
// * * * * * * * * * * * * * * * * * * * * * * * * * * * * * * * * * * * * * //

dimensions      [1 -1 -2 0 0 0 0];

internalField   nonuniform List<scalar> 
2268
(
12931.5
12886.8
12793.3
12647.3
12442.7
12170.1
11815.8
11360.4
10776.1
10020.9
9050.26
7740.89
5583.22
2830.24
1486.99
1243.71
1217.37
1173.57
1129.35
1096.18
1072.88
1059.24
1055.02
12939.4
12895
12801.9
12656.6
12453
12181.6
11828.7
11374.6
10790.9
10032.5
9053.91
7712.09
5444.03
2486.5
1356.91
1242.06
1213.8
1168.72
1125.99
1093.19
1069.75
1055.83
1051.56
12955.8
12911.8
12819.7
12676
12474.6
12206.1
11856.9
11407
10827.3
10069.5
9089.51
7715.35
5255.9
2181
1290.33
1236.91
1204.37
1160.1
1119.52
1087.11
1063.14
1048.32
1043.54
12980.6
12937.3
12846.7
12705.4
12507.5
12243.6
11900.4
11457.7
10886.1
10134.6
9162.8
7764.04
5046.8
1925.37
1257.91
1223.65
1190.63
1149.08
1110.62
1078.34
1053.24
1036.62
1030.52
13013.8
12971.4
12882.9
12744.8
12551.5
12294
11959
11527
10968.3
10230.8
9279.69
7872.88
4840.07
1672.1
1225.49
1205.59
1174.81
1136.66
1099.94
1067.31
1040.26
1020.52
1011.48
13055.3
13014.1
12928
12794.1
12606.6
12357.1
12032.8
11614.9
11074.5
10360.3
9444.25
8053.28
4649.58
1443.79
1195.73
1186.26
1158.6
1123.67
1088.13
1054.54
1024.49
999.664
984.427
13104.8
13064.9
12981.8
12852.6
12672
12431.9
12120.5
11719.8
11202.7
10520.5
9653.37
8306.32
4463.15
1267.15
1170.65
1167.64
1143.14
1110.74
1075.78
1040.6
1006.33
973.667
945.378
13160.7
13122.2
13042.4
12918.2
12744.9
12514.8
12217
11834.8
11343.3
10698.6
9887.09
8613.23
4281.89
1162.35
1151.83
1151.14
1129.09
1098.4
1063.45
1026.13
986.495
942.462
886.63
1.84954
2.006
2.14582
2.24384
2.28948
2.29378
2.27124
2.23394
2.19014
2.14507
2.10185
2.06222
2.0271
1.99691
1.97184
1.95192
1.93712
1.9274
1.92266
1.82734
2.00648
2.15511
2.25462
2.29762
2.29886
2.27395
2.23513
2.19041
2.14479
2.10126
2.06146
2.02624
1.99601
1.97091
1.95098
1.93619
1.92646
1.92173
1.78364
2.00733
2.17565
2.27701
2.31389
2.30876
2.27915
2.23735
2.19082
2.14414
2.1
2.05987
2.02447
1.99414
1.969
1.94906
1.93426
1.92453
1.9198
1.72078
2.00323
2.21049
2.31206
2.33795
2.32296
2.2865
2.24039
2.19124
2.14304
2.09803
2.05742
2.02176
1.9913
1.96611
1.94614
1.93134
1.92162
1.91689
1.63461
1.99079
2.26471
2.361
2.36912
2.34063
2.29548
2.24391
2.19148
2.14138
2.0953
2.05409
2.01812
1.9875
1.96224
1.94224
1.92744
1.91772
1.913
1.54282
1.95444
2.34761
2.42417
2.40593
2.36094
2.30544
2.24749
2.1913
2.13904
2.09173
2.04985
2.01352
1.98273
1.95739
1.93737
1.92256
1.91285
1.90814
1.38409
2.08123
2.48795
2.50034
2.44572
2.38222
2.31544
2.25059
2.1904
2.13584
2.08725
2.04466
2.00796
1.97698
1.95156
1.93153
1.91672
1.90702
1.90231
12.4445
3.5102
2.66612
2.58464
2.48507
2.40292
2.32444
2.25259
2.18842
2.13161
2.08175
2.03846
2.00139
1.97025
1.94477
1.92472
1.90993
1.90024
1.89554
13259.3
13223.3
13148.8
13033.3
12872.3
12659.2
12384.5
12034.2
11587.9
11012.7
10291.5
9190.22
4104.24
1111.21
1131.65
1129.46
1109.54
1080.26
1044.59
1003.15
952.977
882.232
713.577
13427.4
13395.6
13330.2
13229.2
13089.2
12905.4
12671.3
12378.1
12015.2
11566.7
11033.1
10267.9
3817.01
1116.97
1119.52
1111.14
1090.74
1061.29
1024.12
978.945
922.913
850.426
752.419
13639.1
13612.9
13559.6
13478
13366
13221.1
13040.1
12818.5
12532.1
12141.8
11592.8
10355.8
3649.17
1126.55
1115.6
1101.35
1079.2
1048.86
1010.43
963.352
905.686
833.792
741.143
11821.2
11729.9
11544.5
11258.5
10862.1
10342.2
9681.94
8860.39
7871.76
6687.74
5309.78
3203.86
2857.04
1187.52
1113.7
1097.29
1073.26
1041.68
1002.15
953.782
894.657
821.609
729.652
2137.27
2130.86
2117.5
2097.06
2069.32
2034.01
1990.89
1939.82
1881.08
1816.2
1750.88
1688.43
1181.67
1122.96
1112.11
1095.62
1071.02
1038.84
998.991
950.437
891.335
819.245
730.173
2153.9
2147.75
2135.1
2115.92
2090.11
2057.63
2018.51
1973.03
1921.95
1866.95
1812.08
1757.8
1226.89
1137.86
1120.85
1099.92
1073.79
1041.37
1001.89
954.25
896.815
827.923
744.297
2180.55
2175.03
2163.72
2146.62
2123.74
2095.15
2061.06
2021.9
1978.5
1932.26
1885.81
1837.83
1297.38
1148.04
1129.33
1107.18
1080.72
1048.82
1010.54
964.868
910.464
846.449
770.019
2211.79
2206.85
2196.76
2181.57
2161.34
2136.22
2106.48
2072.56
2035.19
1995.39
1954.94
1911.9
1335.39
1158.76
1139.87
1117.73
1091.74
1061
1024.63
981.749
931.312
873.057
804.056
2247.51
2243.13
2234.22
2220.85
2203.12
2181.19
2155.32
2125.94
2093.61
2059.05
2023.49
1984.62
1359.69
1170.97
1152.64
1131.28
1106.47
1077.49
1043.61
1004.14
958.262
906.226
844.896
2287.25
2283.4
2275.62
2263.96
2248.53
2229.5
2207.12
2181.71
2153.73
2123.65
2092.37
2057.35
1374.09
1184.81
1167.63
1147.62
1124.53
1097.8
1066.86
1031.19
990.183
944.437
890.495
2330.56
2327.22
2320.48
2310.41
2297.11
2280.73
2261.49
2239.65
2215.53
2189.47
2162.12
2130.89
1383.94
1200.35
1184.72
1166.49
1145.51
1121.4
1093.71
1062.07
1026.04
986.427
939.376
2377
2374.13
2368.37
2359.77
2348.43
2334.48
2318.1
2299.5
2278.91
2256.57
2232.96
2205.6
1390.67
1217.57
1203.76
1187.59
1169.02
1147.76
1123.51
1096.02
1064.95
1031.24
990.688
2426.17
2423.74
2418.89
2411.65
2402.12
2390.41
2376.66
2361.06
2343.77
2324.95
2304.99
2281.61
1395.08
1236.41
1224.59
1210.67
1194.66
1176.4
1155.68
1132.36
1106.19
1078.14
1043.85
2477.81
2475.81
2471.79
2465.83
2457.99
2448.36
2437.07
2424.27
2410.11
2394.7
2378.35
2359.06
1397.76
1256.83
1247.09
1235.52
1222.17
1206.97
1189.82
1170.66
1149.31
1126.68
1098.47
2531.61
2530.01
2526.79
2522.02
2515.75
2508.06
2499.07
2488.9
2477.7
2465.62
2452.84
2437.83
1398.62
1278.81
1271.16
1261.94
1251.24
1239.06
1225.41
1210.3
1193.66
1176.18
1154.06
2586.32
2585.09
2582.61
2578.94
2574.11
2568.2
2561.31
2553.54
2545.05
2536.06
2526.77
2516.46
1397.21
1301.95
1296.25
1289.22
1280.99
1271.66
1261.31
1250.01
1237.81
1225.21
1210.03
2642.4
2641.52
2639.76
2637.16
2633.75
2629.6
2624.77
2619.35
2613.45
2607.34
2601.24
2595.68
1405.86
1326.87
1322.72
1317.62
1311.77
1305.34
1298.38
1290.98
1283.22
1275.51
1268.06
2692.53
2691.41
2689.18
2685.82
2681.23
2675.36
2668.03
2659.12
2648.19
2634.18
2606.86
2549.57
1451.75
1356.63
1346.74
1337.63
1327.25
1314.78
1299.46
1280.51
1253.68
1197.7
1071.97
1291.04
1284.42
1271.67
1252.78
1228.03
1197.72
1162.18
1121.52
1074.94
1018.73
913.133
741.976
851.246
751.731
648.857
594.665
546.706
499.003
449.897
399.022
338.41
237.58
97.3953
-1.22471
-1.22186
-1.22172
-1.22105
-1.22031
-1.21901
-1.21602
-1.2097
-1.19824
-1.17959
-1.15197
-1.11128
-1.05485
-0.995757
-0.952805
-0.923026
-0.899975
-0.879981
-0.862055
-0.846559
-0.836235
-0.854445
-0.943745
-1.13191
-1.13116
-1.13047
-1.12933
-1.12758
-1.12477
-1.12003
-1.11221
-1.10002
-1.08198
-1.05666
-1.01985
-0.973135
-0.927784
-0.891
-0.860667
-0.834087
-0.808959
-0.783204
-0.75356
-0.720344
-0.702376
-0.710549
-1.0288
-1.02797
-1.02648
-1.02402
-1.02033
-1.01503
-1.00747
-0.99691
-0.982614
-0.963713
-0.939209
-0.908422
-0.872643
-0.835721
-0.800787
-0.768142
-0.736581
-0.704271
-0.668874
-0.627238
-0.57854
-0.525148
-0.448266
-0.939361
-0.938337
-0.936224
-0.932749
-0.927641
-0.920557
-0.911043
-0.898635
-0.882974
-0.86373
-0.84052
-0.813058
-0.782168
-0.74921
-0.715418
-0.681082
-0.645564
-0.607588
-0.565466
-0.517299
-0.461901
-0.396216
-0.306652
-0.861421
-0.860178
-0.857604
-0.853449
-0.847454
-0.839339
-0.828788
-0.815533
-0.799417
-0.780335
-0.758134
-0.732683
-0.704256
-0.673336
-0.640369
-0.605422
-0.568036
-0.527277
-0.481872
-0.430356
-0.371125
-0.300821
-0.21258
-0.792244
-0.790855
-0.787986
-0.783426
-0.776955
-0.76835
-0.757391
-0.74391
-0.727832
-0.70912
-0.687702
-0.663489
-0.636513
-0.606889
-0.574715
-0.539905
-0.502076
-0.460543
-0.414403
-0.3626
-0.303807
-0.235945
-0.156264
-0.729357
-0.727874
-0.72483
-0.72006
-0.713384
-0.704626
-0.693625
-0.680267
-0.664494
-0.646282
-0.625581
-0.602316
-0.576433
-0.547899
-0.516659
-0.482563
-0.445288
-0.404331
-0.359052
-0.308717
-0.252452
-0.189297
-0.118478
-0.671018
-0.669492
-0.666365
-0.661515
-0.654803
-0.646093
-0.635263
-0.622223
-0.606917
-0.589315
-0.569369
-0.547013
-0.522166
-0.494748
-0.464652
-0.431717
-0.395686
-0.356201
-0.312833
-0.265117
-0.212598
-0.155009
-0.0923822
-0.616167
-0.614626
-0.611482
-0.606647
-0.600017
-0.591485
-0.580957
-0.568356
-0.553629
-0.536735
-0.517627
-0.496243
-0.472504
-0.446321
-0.417587
-0.386158
-0.351844
-0.314407
-0.273581
-0.229115
-0.180842
-0.128856
-0.0735061
-0.564144
-0.562619
-0.559513
-0.554768
-0.548306
-0.540046
-0.529912
-0.51784
-0.503778
-0.487681
-0.469504
-0.449189
-0.426669
-0.401865
-0.374685
-0.345022
-0.312745
-0.27771
-0.239778
-0.198846
-0.154926
-0.108268
-0.0593006
-0.514535
-0.513046
-0.510025
-0.505432
-0.499209
-0.491296
-0.481631
-0.470161
-0.456838
-0.441619
-0.424461
-0.405314
-0.384125
-0.36083
-0.335363
-0.30765
-0.277615
-0.245185
-0.210309
-0.172986
-0.133321
-0.0916141
-0.0482925
-0.467042
-0.465612
-0.462716
-0.458327
-0.452404
-0.4449
-0.435769
-0.424965
-0.412446
-0.398175
-0.382114
-0.364223
-0.344461
-0.322783
-0.299147
-0.273509
-0.245836
-0.216109
-0.184335
-0.150572
-0.114973
-0.0778341
-0.0395382
-0.42144
-0.420085
-0.417347
-0.413205
-0.407631
-0.400592
-0.392049
-0.381967
-0.370311
-0.35705
-0.342153
-0.325589
-0.307331
-0.287351
-0.265626
-0.24214
-0.216891
-0.189894
-0.161195
-0.130887
-0.0991337
-0.0662108
-0.0324508
-0.377534
-0.376268
-0.373713
-0.369854
-0.364672
-0.358142
-0.350235
-0.340924
-0.330181
-0.317981
-0.304303
-0.289124
-0.272428
-0.254203
-0.234441
-0.213146
-0.190339
-0.166057
-0.14037
-0.113382
-0.0852571
-0.0562387
-0.0266072
-0.335147
-0.33398
-0.331628
-0.328081
-0.323326
-0.317343
-0.310112
-0.301613
-0.291825
-0.280731
-0.268314
-0.254564
-0.239472
-0.223038
-0.205267
-0.186178
-0.165805
-0.144199
-0.121439
-0.0976335
-0.0729345
-0.0475526
-0.0217236
-0.294111
-0.293053
-0.290921
-0.287709
-0.283407
-0.278003
-0.271482
-0.263829
-0.255031
-0.245076
-0.233956
-0.221666
-0.208207
-0.193585
-0.177818
-0.160931
-0.142967
-0.123985
-0.104063
-0.0833079
-0.0618554
-0.0398842
-0.0175885
-0.25427
-0.253327
-0.251427
-0.248568
-0.244742
-0.239941
-0.234157
-0.227378
-0.219598
-0.21081
-0.201013
-0.190206
-0.178397
-0.165599
-0.151835
-0.137137
-0.12155
-0.105133
-0.0879644
-0.0701398
-0.0517788
-0.0330303
-0.0140531
-0.215471
-0.214648
-0.212991
-0.210498
-0.207165
-0.202988
-0.197961
-0.192079
-0.185339
-0.17774
-0.169284
-0.159976
-0.149828
-0.138857
-0.12709
-0.11456
-0.101313
-0.0874071
-0.0729125
-0.0579144
-0.0425148
-0.0268352
-0.011002
-0.177567
-0.176866
-0.175459
-0.173343
-0.170517
-0.166979
-0.162727
-0.15776
-0.152078
-0.145683
-0.138582
-0.130783
-0.122301
-0.113156
-0.103375
-0.0929923
-0.0820512
-0.0706046
-0.0587152
-0.0464562
-0.0339114
-0.0211772
-0.0083517
-0.140418
-0.139845
-0.138694
-0.136964
-0.134656
-0.13177
-0.128306
-0.124266
-0.119654
-0.114475
-0.108737
-0.102453
-0.0956382
-0.0883139
-0.0805067
-0.0722494
-0.0635818
-0.0545506
-0.0452094
-0.0356183
-0.0258443
-0.0159604
-0.00603807
-0.103943
-0.103504
-0.102615
-0.101276
-0.0994913
-0.0972621
-0.094592
-0.0914852
-0.0879477
-0.0839874
-0.0796147
-0.0748432
-0.0696899
-0.0641759
-0.0583267
-0.0521724
-0.0457483
-0.0390942
-0.0322541
-0.0252757
-0.0182093
-0.0111063
-0.00401371
-0.067901
-0.0676049
-0.0669838
-0.0660439
-0.0647899
-0.0632267
-0.0613599
-0.0591958
-0.0567422
-0.0540089
-0.0510076
-0.0477529
-0.044262
-0.0405553
-0.0366563
-0.0325918
-0.028392
-0.0240894
-0.0197187
-0.0153156
-0.0109151
-0.00654912
-0.00224087
-0.0311054
-0.0309742
-0.0306393
-0.0301244
-0.0294378
-0.0285858
-0.027575
-0.0264128
-0.0251079
-0.0236704
-0.0221124
-0.0204477
-0.0186921
-0.0168635
-0.0149817
-0.0130682
-0.0111462
-0.00923955
-0.00737229
-0.00556749
-0.00384539
-0.00221993
-0.000689499
393.072
324.359
322.925
310.685
628.879
544.588
474.392
408.722
627.25
547.456
473.102
341.681
629.986
553.896
439.319
77.7254
635.712
563.018
241.653
2.79324
656.51
534.598
89.7402
2.8728
690.392
446.234
23.4444
2.53296
733.977
328.876
2.50091
2.08588
747.059
234.621
1.98261
1.96544
740.812
163.585
1.95962
1.90683
719.523
107.83
1.8519
1.8121
682.829
65.5737
1.72371
1.69914
630.572
35.4061
1.6035
1.5829
562.562
15.8722
1.49409
1.46055
485.073
5.0908
1.33885
1.30558
426.417
1.49708
1.20262
1.18033
422.508
1.69904
1.13558
1.06613
521.999
50.0884
0.875918
0.804908
135.464
110.418
2.45966
0.390705
-1.15188
-1.19596
-0.65241
-0.277119
-0.674847
-0.561549
-0.392821
-0.167795
-0.338947
-0.249075
-0.141614
-0.0264881
-0.212016
-0.141502
-0.0633042
0.0186031
-0.13149
-0.0770142
-0.0199407
0.0396688
-0.0881756
-0.043113
0.00283768
0.0498132
-0.0607229
-0.0230066
0.0151243
0.0537835
-0.0427793
-0.0105897
0.0217916
0.0544546
-0.0304785
-0.00264193
0.0252697
0.0533252
-0.0217279
0.00252373
0.0268035
0.0511539
-0.0153436
0.00589192
0.0271193
0.0483695
-0.0106063
0.00801355
0.026611
0.0452046
-0.00706785
0.00925301
0.0255391
0.0418022
-0.00441621
0.0098394
0.0240579
0.0382433
-0.00243923
0.0099406
0.0222807
0.0345807
-0.000986893
0.00966255
0.0202735
0.0308416
4.56196e-05
0.00908345
0.0180835
0.0270396
0.000735281
0.00825316
0.0157358
0.0231754
0.00113577
0.00720685
0.0132448
0.0192421
0.00128349
0.00596247
0.0106116
0.0152239
0.00120189
0.00452844
0.00782875
0.0110979
0.000903428
0.00290077
0.00487744
0.00683128
0.000387785
0.00106214
0.00172374
0.002374
150.733
3.32841
2.86364
2.69472
2.53806
2.43128
2.33518
2.25303
2.18311
2.12304
2.07136
2.02709
1.98954
1.95819
1.93264
1.9126
1.89784
1.88818
1.88349
170.755
3.11481
3.01323
2.83414
2.57348
2.445
2.33282
2.24178
2.16686
2.10401
2.05087
2.00592
1.96814
1.9368
1.91139
1.89152
1.87692
1.86738
1.86275
21.0703
2.95296
2.88977
2.72004
2.55276
2.42192
2.30823
2.21587
2.13984
2.07645
2.02322
1.97846
1.94104
1.91013
1.88515
1.86566
1.85137
1.84204
1.83751
2.90174
2.82946
2.75023
2.61109
2.49129
2.36771
2.2631
2.17545
2.10199
2.04031
1.98842
1.94482
1.90841
1.87838
1.85414
1.83527
1.82143
1.81241
1.80803
2.82432
2.65607
2.51793
2.50837
2.40029
2.29516
2.2029
2.12279
2.05428
1.99606
1.94675
1.90518
1.8704
1.84171
1.81854
1.80051
1.78729
1.77867
1.77449
2.66501
2.42543
2.4386
2.39865
2.30299
2.21343
2.13242
2.0606
1.99821
1.94456
1.89875
1.85991
1.82732
1.80036
1.77857
1.76159
1.74914
1.74102
1.73708
2.42615
2.34179
2.35342
2.28717
2.20274
2.1254
2.05451
1.99103
1.93526
1.88682
1.84511
1.80955
1.77956
1.75469
1.73453
1.7188
1.70726
1.69972
1.69607
2.21147
2.22117
2.24671
2.17095
2.09833
2.03209
1.97089
1.91567
1.86672
1.82382
1.78661
1.75468
1.72762
1.70509
1.68678
1.67246
1.66194
1.65506
1.65172
1.99201
2.11224
2.12004
2.05154
1.99073
1.93483
1.88293
1.83581
1.79368
1.75648
1.72398
1.69591
1.672
1.65201
1.63571
1.62293
1.61352
1.60736
1.60437
1.86113
1.99276
1.9855
1.93014
1.8808
1.83472
1.79174
1.75247
1.7171
1.68563
1.65794
1.63387
1.61325
1.59592
1.58174
1.57059
1.56236
1.55697
1.55435
1.7613
1.86512
1.84955
1.80772
1.7692
1.73255
1.69816
1.66651
1.63778
1.612
1.58915
1.56913
1.55188
1.5373
1.52531
1.51585
1.50884
1.50425
1.50202
1.66745
1.73324
1.71477
1.68492
1.65648
1.62893
1.60286
1.57864
1.55642
1.53628
1.51823
1.50228
1.48842
1.47661
1.46685
1.4591
1.45335
1.44957
1.44773
1.56831
1.59866
1.58145
1.56198
1.54302
1.52436
1.50644
1.4895
1.47368
1.45908
1.44579
1.43387
1.42337
1.41433
1.40679
1.40077
1.39627
1.39331
1.39187
1.45506
1.46057
1.44857
1.43878
1.42914
1.41931
1.40945
1.39968
1.39015
1.381
1.37237
1.3644
1.35722
1.35091
1.34556
1.34124
1.33799
1.33583
1.33479
1.3175
1.31755
1.31505
1.31521
1.31513
1.31426
1.31246
1.3098
1.30644
1.30261
1.29853
1.29441
1.29045
1.28679
1.28358
1.28091
1.27887
1.27751
1.27684
1.17169
1.17374
1.18061
1.19129
1.20138
1.20977
1.21611
1.22049
1.22317
1.22449
1.22479
1.22438
1.2235
1.22239
1.22123
1.22015
1.21927
1.21867
1.21838
1.01193
1.02585
1.04328
1.06662
1.08826
1.10653
1.12115
1.13246
1.14099
1.14723
1.15169
1.15478
1.15683
1.15813
1.1589
1.1593
1.15952
1.15965
1.15971
0.812792
0.855254
0.898593
0.941174
0.97668
1.00549
1.0284
1.04643
1.0605
1.07138
1.07972
1.08605
1.09082
1.09436
1.09696
1.09868
1.09995
1.10075
1.10114
0.522269
0.662946
0.750623
0.817986
0.868767
0.908134
0.938957
0.963228
0.982375
0.997467
1.00933
1.01862
1.02584
1.0314
1.03561
1.03867
1.04085
1.04225
1.04294
0.225834
0.476223
0.613098
0.703642
0.76797
0.81651
0.854144
0.88378
0.907306
0.926048
0.940983
0.952855
0.962239
0.969582
0.975232
0.979452
0.982463
0.984405
0.985362
0.133888
0.358938
0.505549
0.605682
0.677876
0.732574
0.775165
0.808904
0.835895
0.857595
0.875062
0.889095
0.900307
0.909174
0.916067
0.92127
0.925003
0.927418
0.928604
0.144088
0.304483
0.431386
0.527136
0.600332
0.657461
0.702771
0.739143
0.768563
0.792452
0.811864
0.827602
0.840284
0.850395
0.858313
0.86433
0.868665
0.871476
0.872858
0.142765
0.270081
0.3775
0.464346
0.5344
0.591047
0.63708
0.674681
0.705505
0.730814
0.751578
0.768556
0.782343
0.793411
0.802131
0.80879
0.813606
0.816735
0.818272
0.134142
0.240972
0.333981
0.412324
0.477824
0.532349
0.577681
0.61537
0.646703
0.672725
0.694282
0.712054
0.726591
0.738334
0.747634
0.754768
0.759943
0.763312
0.764967
0.125207
0.21618
0.297473
0.36805
0.428619
0.480201
0.523922
0.560859
0.591977
0.618109
0.639961
0.65812
0.673075
0.685227
0.694897
0.702343
0.707762
0.711294
0.71303
0.116406
0.19486
0.266305
0.329757
0.385345
0.433569
0.475113
0.510707
0.541056
0.566806
0.588528
0.606716
0.621792
0.634107
0.643953
0.651561
0.657112
0.660737
0.662518
0.107721
0.176059
0.23916
0.29615
0.346891
0.39158
0.430607
0.464454
0.493623
0.518603
0.539846
0.557758
0.572693
0.584956
0.594801
0.602434
0.608017
0.611668
0.613462
0.0992901
0.159203
0.215114
0.266256
0.312376
0.353498
0.389823
0.421655
0.449347
0.473259
0.493744
0.511126
0.525701
0.537723
0.547411
0.554947
0.560471
0.564088
0.565868
0.09117
0.143906
0.193519
0.23935
0.281104
0.318709
0.352246
0.381899
0.407905
0.430527
0.450034
0.466682
0.48071
0.492331
0.501731
0.509061
0.514447
0.517979
0.519717
0.083373
0.129875
0.173896
0.214876
0.252518
0.286701
0.317432
0.344809
0.368989
0.390159
0.408519
0.42427
0.437601
0.448689
0.457685
0.46472
0.469898
0.473298
0.474973
0.0758804
0.116878
0.155874
0.192397
0.226169
0.257045
0.28499
0.310047
0.332312
0.351914
0.369001
0.383727
0.396242
0.406686
0.415185
0.421847
0.42676
0.429989
0.43158
0.0686649
0.104731
0.139161
0.171564
0.201686
0.22938
0.254586
0.27731
0.297606
0.315563
0.331285
0.34489
0.356493
0.366206
0.374131
0.380357
0.384954
0.38798
0.389472
0.0616907
0.0932806
0.123523
0.152091
0.178763
0.203397
0.225923
0.246325
0.264628
0.280888
0.295181
0.307592
0.31821
0.327124
0.334413
0.340149
0.344392
0.347187
0.348566
0.0549225
0.0824018
0.108764
0.13374
0.157139
0.178832
0.198744
0.216848
0.233151
0.247686
0.260504
0.271669
0.281248
0.289308
0.295912
0.301119
0.304974
0.307516
0.308771
0.0483226
0.0719862
0.0947223
0.116312
0.136593
0.155452
0.172818
0.188658
0.202966
0.215761
0.227078
0.236961
0.245459
0.252625
0.258508
0.263152
0.266595
0.268866
0.269988
0.0418539
0.061939
0.0812573
0.0996325
0.11693
0.133054
0.147939
0.161551
0.17388
0.184933
0.194732
0.203308
0.210699
0.216941
0.222073
0.22613
0.229141
0.231128
0.232111
0.0354772
0.0521747
0.0682451
0.0835492
0.0979791
0.111454
0.12392
0.135343
0.145712
0.155027
0.163302
0.170558
0.176821
0.182119
0.186481
0.189932
0.192496
0.194189
0.195026
0.0291521
0.0426137
0.0555734
0.0679247
0.0795836
0.0904863
0.100588
0.109861
0.118291
0.125878
0.132629
0.138558
0.143682
0.148023
0.1516
0.154434
0.156539
0.157931
0.15862
0.0228354
0.0331796
0.0431376
0.0526321
0.0616009
0.0699961
0.0777835
0.084941
0.0914571
0.0973288
0.10256
0.10716
0.111141
0.114517
0.117301
0.119508
0.121149
0.122235
0.122772
0.0164801
0.0237967
0.0308377
0.0375515
0.0438961
0.0498385
0.055355
0.0604299
0.0650545
0.0692261
0.0729466
0.0762214
0.0790579
0.0814651
0.0834523
0.0850283
0.0862009
0.0869764
0.0873613
0.010033
0.0143871
0.0185748
0.0225669
0.0263396
0.0298741
0.0331567
0.0361784
0.0389339
0.0414214
0.0436417
0.0455975
0.0472928
0.0487326
0.0499219
0.0508656
0.0515681
0.0520332
0.052264
0.00343152
0.00486818
0.00624783
0.00756182
0.00880293
0.00996551
0.0110454
0.0120399
0.0129475
0.0137674
0.0145
0.015146
0.0157066
0.0161831
0.0165771
0.01689
0.0171231
0.0172773
0.0173535
)
;

boundaryField
{
    leftWall
    {
        type            fixedFluxPressure;
        gradient        uniform 0;
        value           nonuniform List<scalar> 
50
(
12931.5
12939.4
12955.8
12980.6
13013.8
13055.3
13104.8
13160.7
13259.3
13427.4
13639.1
11821.2
2137.27
2153.9
2180.55
2211.79
2247.51
2287.25
2330.56
2377
2426.17
2477.81
2531.61
2586.32
2642.4
2692.53
1291.04
-1.22471
-1.13191
-1.0288
-0.939361
-0.861421
-0.792244
-0.729357
-0.671018
-0.616167
-0.564144
-0.514535
-0.467042
-0.42144
-0.377534
-0.335147
-0.294111
-0.25427
-0.215471
-0.177567
-0.140418
-0.103943
-0.067901
-0.0311054
)
;
    }
    rightWall
    {
        type            fixedFluxPressure;
        gradient        uniform 0;
        value           nonuniform List<scalar> 
50
(
1.92266
1.92173
1.9198
1.91689
1.913
1.90814
1.90231
1.89554
1.88349
1.86275
1.83751
1.80803
1.77449
1.73708
1.69607
1.65172
1.60437
1.55435
1.50202
1.44773
1.39187
1.33479
1.27684
1.21838
1.15971
1.10114
1.04294
0.985362
0.928604
0.872858
0.818272
0.764967
0.71303
0.662518
0.613462
0.565868
0.519717
0.474973
0.43158
0.389472
0.348566
0.308771
0.269988
0.232111
0.195026
0.15862
0.122772
0.0873613
0.052264
0.0173535
)
;
    }
    lowerWall
    {
        type            fixedFluxPressure;
        gradient        uniform 0;
        value           nonuniform List<scalar> 
62
(
12931.5
12886.8
12793.3
12647.3
12442.7
12170.1
11815.8
11360.4
10776.1
10020.9
9050.26
7740.89
5583.22
2830.24
1486.99
1243.71
1217.37
1173.57
1129.35
1096.18
1072.88
1059.24
1055.02
1055.02
1051.56
1043.54
1030.52
1011.48
984.427
945.378
886.63
393.072
324.359
322.925
310.685
1.84954
1.82734
1.78364
1.72078
1.63461
1.54282
1.38409
12.4445
1.84954
2.006
2.14582
2.24384
2.28948
2.29378
2.27124
2.23394
2.19014
2.14507
2.10185
2.06222
2.0271
1.99691
1.97184
1.95192
1.93712
1.9274
1.92266
)
;
    }
    atmosphere
    {
        type            totalPressure;
        rho             rho;
        psi             none;
        gamma           1;
        p0              uniform 0;
        value           nonuniform List<scalar> 
46
(
-0.0117985
-0.0118013
-0.0116131
-0.0113312
-0.0109594
-0.0105025
-0.00996614
-0.00935732
-0.00868414
-0.00795601
-0.00718377
-0.00637969
-0.00555754
-0.00473248
-0.00392098
-0.00314051
-0.00240922
-0.00174537
-0.00116678
-0.000690068
-0.000329855
-9.77291e-05
-2.2588e-06
0
0
0
0
0
0
0
0
0
0
0
0
0
0
0
0
0
0
0
0
0
0
0
)
;
    }
    defaultFaces
    {
        type            empty;
    }
}


// ************************************************************************* //
